/*--------------------------------*- C++ -*----------------------------------*\
  =========                 |
  \\      /  F ield         | OpenFOAM: The Open Source CFD Toolbox
   \\    /   O peration     | Website:  https://openfoam.org
    \\  /    A nd           | Version:  11
     \\/     M anipulation  |
\*---------------------------------------------------------------------------*/
FoamFile
{
    format      ascii;
    class       volScalarField;
    location    "623";
    object      p;
}
// * * * * * * * * * * * * * * * * * * * * * * * * * * * * * * * * * * * * * //

dimensions      [0 2 -2 0 0 0 0];

internalField   nonuniform List<scalar> 
427520
(
5.60338
5.57128
5.54699
5.532
5.52169
5.51389
5.50786
5.5032
5.49955
5.49667
5.49437
5.49251
5.49099
5.48974
5.4887
5.48782
5.48707
5.48643
5.48587
5.48539
5.48497
5.4846
5.48427
5.48398
5.48373
5.4835
5.4833
5.48311
5.48296
5.48281
5.48269
5.48258
5.48249
5.48241
5.48234
5.48228
5.48224
5.48221
5.48219
5.48218
5.48218
5.48219
5.48221
5.48224
5.48228
5.48234
5.48241
5.48249
5.48258
5.48269
5.48281
5.48296
5.48311
5.4833
5.4835
5.48373
5.48398
5.48427
5.4846
5.48497
5.48539
5.48587
5.48643
5.48707
5.48782
5.4887
5.48974
5.49099
5.49251
5.49437
5.49667
5.49955
5.5032
5.50786
5.51389
5.52169
5.532
5.54699
5.57128
5.60338
5.51143
5.51179
5.51072
5.50865
5.50619
5.50368
5.50126
5.49903
5.49702
5.49523
5.49365
5.49227
5.49105
5.48999
5.48905
5.48823
5.48751
5.48688
5.48632
5.48582
5.48538
5.48499
5.48464
5.48433
5.48406
5.48381
5.48359
5.48339
5.48322
5.48307
5.48293
5.48281
5.48271
5.48262
5.48255
5.48249
5.48244
5.48241
5.48238
5.48237
5.48237
5.48238
5.48241
5.48244
5.48249
5.48255
5.48262
5.48271
5.48281
5.48293
5.48307
5.48322
5.48339
5.48359
5.48381
5.48406
5.48433
5.48464
5.48499
5.48538
5.48582
5.48632
5.48688
5.48751
5.48823
5.48905
5.48999
5.49105
5.49227
5.49365
5.49523
5.49702
5.49903
5.50126
5.50368
5.50619
5.50865
5.51072
5.51179
5.51143
5.4963
5.49823
5.49964
5.49976
5.4991
5.49809
5.49692
5.49569
5.49447
5.4933
5.4922
5.49118
5.49025
5.4894
5.48864
5.48795
5.48732
5.48676
5.48625
5.4858
5.48539
5.48502
5.48469
5.48439
5.48413
5.48389
5.48367
5.48348
5.48331
5.48315
5.48302
5.4829
5.4828
5.48271
5.48264
5.48257
5.48253
5.48249
5.48247
5.48245
5.48245
5.48247
5.48249
5.48253
5.48257
5.48264
5.48271
5.4828
5.4829
5.48302
5.48315
5.48331
5.48348
5.48367
5.48389
5.48413
5.48439
5.48469
5.48502
5.48539
5.4858
5.48625
5.48676
5.48732
5.48795
5.48864
5.4894
5.49025
5.49118
5.4922
5.4933
5.49447
5.49569
5.49692
5.49809
5.4991
5.49976
5.49964
5.49823
5.4963
5.48958
5.49105
5.4923
5.49289
5.493
5.49282
5.49244
5.49193
5.49134
5.49072
5.49008
5.48945
5.48884
5.48825
5.4877
5.48718
5.4867
5.48626
5.48585
5.48547
5.48512
5.48481
5.48452
5.48425
5.48401
5.4838
5.4836
5.48342
5.48326
5.48312
5.48299
5.48288
5.48279
5.4827
5.48263
5.48258
5.48253
5.4825
5.48247
5.48246
5.48246
5.48247
5.4825
5.48253
5.48258
5.48263
5.4827
5.48279
5.48288
5.48299
5.48312
5.48326
5.48342
5.4836
5.4838
5.48401
5.48425
5.48452
5.48481
5.48512
5.48547
5.48585
5.48626
5.4867
5.48718
5.4877
5.48825
5.48884
5.48945
5.49008
5.49072
5.49134
5.49193
5.49244
5.49282
5.493
5.49289
5.4923
5.49105
5.48958
5.48604
5.48706
5.48802
5.48865
5.48899
5.48912
5.4891
5.48895
5.48871
5.48842
5.48808
5.48771
5.48733
5.48696
5.48658
5.48622
5.48588
5.48555
5.48523
5.48494
5.48466
5.48441
5.48417
5.48395
5.48375
5.48357
5.4834
5.48324
5.4831
5.48298
5.48287
5.48277
5.48268
5.48261
5.48254
5.48249
5.48245
5.48242
5.4824
5.48239
5.48239
5.4824
5.48242
5.48245
5.48249
5.48254
5.48261
5.48268
5.48277
5.48287
5.48298
5.4831
5.48324
5.4834
5.48357
5.48375
5.48395
5.48417
5.48441
5.48466
5.48494
5.48523
5.48555
5.48588
5.48622
5.48658
5.48696
5.48733
5.48771
5.48808
5.48842
5.48871
5.48895
5.4891
5.48912
5.48899
5.48865
5.48802
5.48706
5.48604
5.48391
5.48463
5.48534
5.48587
5.48623
5.48645
5.48657
5.48659
5.48654
5.48643
5.48627
5.48609
5.48588
5.48565
5.48542
5.48518
5.48495
5.48472
5.4845
5.48428
5.48408
5.48388
5.4837
5.48353
5.48337
5.48322
5.48308
5.48296
5.48284
5.48274
5.48264
5.48256
5.48249
5.48242
5.48237
5.48232
5.48229
5.48226
5.48224
5.48224
5.48224
5.48224
5.48226
5.48229
5.48232
5.48237
5.48242
5.48249
5.48256
5.48264
5.48274
5.48284
5.48296
5.48308
5.48322
5.48337
5.48353
5.4837
5.48388
5.48408
5.48428
5.4845
5.48472
5.48495
5.48518
5.48542
5.48565
5.48588
5.48609
5.48627
5.48643
5.48654
5.48659
5.48657
5.48645
5.48623
5.48587
5.48534
5.48463
5.48391
5.48246
5.48297
5.4835
5.48392
5.48425
5.48448
5.48464
5.48474
5.48478
5.48477
5.48473
5.48465
5.48455
5.48442
5.48429
5.48415
5.484
5.48385
5.48371
5.48356
5.48342
5.48328
5.48314
5.48302
5.4829
5.48279
5.48268
5.48258
5.48249
5.48241
5.48234
5.48227
5.48221
5.48216
5.48212
5.48208
5.48205
5.48203
5.48202
5.48201
5.48201
5.48202
5.48203
5.48205
5.48208
5.48212
5.48216
5.48221
5.48227
5.48234
5.48241
5.48249
5.48258
5.48268
5.48279
5.4829
5.48302
5.48314
5.48328
5.48342
5.48356
5.48371
5.48385
5.484
5.48415
5.48429
5.48442
5.48455
5.48465
5.48473
5.48477
5.48478
5.48474
5.48464
5.48448
5.48425
5.48392
5.4835
5.48297
5.48246
5.48138
5.48176
5.48216
5.4825
5.48277
5.48299
5.48315
5.48327
5.48335
5.4834
5.48341
5.4834
5.48336
5.48331
5.48325
5.48317
5.48309
5.483
5.48291
5.48282
5.48272
5.48263
5.48254
5.48245
5.48237
5.48229
5.48222
5.48215
5.48208
5.48202
5.48196
5.48192
5.48187
5.48183
5.4818
5.48177
5.48175
5.48173
5.48172
5.48172
5.48172
5.48172
5.48173
5.48175
5.48177
5.4818
5.48183
5.48187
5.48192
5.48196
5.48202
5.48208
5.48215
5.48222
5.48229
5.48237
5.48245
5.48254
5.48263
5.48272
5.48282
5.48291
5.483
5.48309
5.48317
5.48325
5.48331
5.48336
5.4834
5.48341
5.4834
5.48335
5.48327
5.48315
5.48299
5.48277
5.4825
5.48216
5.48176
5.48138
5.48053
5.48082
5.48113
5.4814
5.48162
5.48181
5.48197
5.48209
5.48218
5.48225
5.4823
5.48232
5.48232
5.48232
5.4823
5.48226
5.48223
5.48218
5.48213
5.48208
5.48203
5.48197
5.48192
5.48186
5.48181
5.48176
5.48171
5.48166
5.48162
5.48158
5.48154
5.48151
5.48147
5.48145
5.48142
5.4814
5.48139
5.48138
5.48137
5.48137
5.48137
5.48137
5.48138
5.48139
5.4814
5.48142
5.48145
5.48147
5.48151
5.48154
5.48158
5.48162
5.48166
5.48171
5.48176
5.48181
5.48186
5.48192
5.48197
5.48203
5.48208
5.48213
5.48218
5.48223
5.48226
5.4823
5.48232
5.48232
5.48232
5.4823
5.48225
5.48218
5.48209
5.48197
5.48181
5.48162
5.4814
5.48113
5.48082
5.48053
5.47983
5.48005
5.4803
5.48051
5.4807
5.48086
5.481
5.48111
5.48121
5.48128
5.48134
5.48138
5.48141
5.48143
5.48144
5.48143
5.48143
5.48141
5.48139
5.48137
5.48134
5.48132
5.48129
5.48126
5.48123
5.4812
5.48118
5.48115
5.48112
5.4811
5.48108
5.48106
5.48104
5.48102
5.48101
5.48099
5.48098
5.48098
5.48097
5.48097
5.48097
5.48097
5.48098
5.48098
5.48099
5.48101
5.48102
5.48104
5.48106
5.48108
5.4811
5.48112
5.48115
5.48118
5.4812
5.48123
5.48126
5.48129
5.48132
5.48134
5.48137
5.48139
5.48141
5.48143
5.48143
5.48144
5.48143
5.48141
5.48138
5.48134
5.48128
5.48121
5.48111
5.481
5.48086
5.4807
5.48051
5.4803
5.48005
5.47983
5.47923
5.47941
5.4796
5.47978
5.47993
5.48007
5.48018
5.48029
5.48038
5.48045
5.48051
5.48056
5.48061
5.48064
5.48066
5.48068
5.48069
5.48069
5.48069
5.48069
5.48069
5.48068
5.48067
5.48066
5.48065
5.48064
5.48063
5.48062
5.48061
5.4806
5.48059
5.48058
5.48057
5.48056
5.48055
5.48055
5.48054
5.48054
5.48054
5.48054
5.48054
5.48054
5.48054
5.48054
5.48055
5.48055
5.48056
5.48057
5.48058
5.48059
5.4806
5.48061
5.48062
5.48063
5.48064
5.48065
5.48066
5.48067
5.48068
5.48069
5.48069
5.48069
5.48069
5.48069
5.48068
5.48066
5.48064
5.48061
5.48056
5.48051
5.48045
5.48038
5.48029
5.48018
5.48007
5.47993
5.47978
5.4796
5.47941
5.47923
5.4787
5.47885
5.479
5.47914
5.47927
5.47938
5.47949
5.47958
5.47966
5.47973
5.47979
5.47984
5.47989
5.47992
5.47996
5.47998
5.48
5.48002
5.48004
5.48005
5.48006
5.48007
5.48007
5.48008
5.48008
5.48008
5.48008
5.48008
5.48008
5.48008
5.48008
5.48008
5.48008
5.48008
5.48008
5.48008
5.48008
5.48008
5.48008
5.48008
5.48008
5.48008
5.48008
5.48008
5.48008
5.48008
5.48008
5.48008
5.48008
5.48008
5.48008
5.48008
5.48008
5.48008
5.48008
5.48008
5.48008
5.48007
5.48007
5.48006
5.48005
5.48004
5.48002
5.48
5.47998
5.47996
5.47992
5.47989
5.47984
5.47979
5.47973
5.47966
5.47958
5.47949
5.47938
5.47927
5.47914
5.479
5.47885
5.4787
5.47823
5.47834
5.47847
5.47858
5.47869
5.47878
5.47887
5.47895
5.47902
5.47908
5.47914
5.47919
5.47924
5.47928
5.47931
5.47935
5.47937
5.4794
5.47942
5.47944
5.47946
5.47948
5.47949
5.47951
5.47952
5.47953
5.47954
5.47955
5.47956
5.47957
5.47957
5.47958
5.47958
5.47959
5.47959
5.4796
5.4796
5.4796
5.4796
5.4796
5.4796
5.4796
5.4796
5.4796
5.4796
5.47959
5.47959
5.47958
5.47958
5.47957
5.47957
5.47956
5.47955
5.47954
5.47953
5.47952
5.47951
5.47949
5.47948
5.47946
5.47944
5.47942
5.4794
5.47937
5.47935
5.47931
5.47928
5.47924
5.47919
5.47914
5.47908
5.47902
5.47895
5.47887
5.47878
5.47869
5.47858
5.47847
5.47834
5.47823
5.47779
5.47788
5.47798
5.47808
5.47816
5.47824
5.47832
5.47838
5.47845
5.4785
5.47856
5.4786
5.47865
5.47869
5.47872
5.47876
5.47879
5.47882
5.47884
5.47887
5.47889
5.47892
5.47894
5.47896
5.47898
5.47899
5.47901
5.47902
5.47904
5.47905
5.47906
5.47907
5.47908
5.47909
5.4791
5.4791
5.47911
5.47911
5.47911
5.47912
5.47912
5.47911
5.47911
5.47911
5.4791
5.4791
5.47909
5.47908
5.47907
5.47906
5.47905
5.47904
5.47902
5.47901
5.47899
5.47898
5.47896
5.47894
5.47892
5.47889
5.47887
5.47884
5.47882
5.47879
5.47876
5.47872
5.47869
5.47865
5.4786
5.47856
5.4785
5.47845
5.47838
5.47832
5.47824
5.47816
5.47808
5.47798
5.47788
5.47779
5.47737
5.47745
5.47753
5.47761
5.47768
5.47775
5.47781
5.47787
5.47792
5.47797
5.47802
5.47806
5.4781
5.47814
5.47818
5.47821
5.47824
5.47827
5.4783
5.47833
5.47835
5.47838
5.4784
5.47843
5.47845
5.47847
5.47849
5.47851
5.47853
5.47854
5.47856
5.47857
5.47858
5.47859
5.4786
5.47861
5.47862
5.47862
5.47862
5.47863
5.47863
5.47862
5.47862
5.47862
5.47861
5.4786
5.47859
5.47858
5.47857
5.47856
5.47854
5.47853
5.47851
5.47849
5.47847
5.47845
5.47843
5.4784
5.47838
5.47835
5.47833
5.4783
5.47827
5.47824
5.47821
5.47818
5.47814
5.4781
5.47806
5.47802
5.47797
5.47792
5.47787
5.47781
5.47775
5.47768
5.47761
5.47753
5.47745
5.47737
5.47698
5.47704
5.47711
5.47717
5.47723
5.47728
5.47734
5.47739
5.47743
5.47748
5.47752
5.47756
5.47759
5.47763
5.47766
5.47769
5.47773
5.47776
5.47778
5.47781
5.47784
5.47787
5.47789
5.47792
5.47794
5.47796
5.47798
5.478
5.47802
5.47804
5.47806
5.47807
5.47809
5.4781
5.47811
5.47812
5.47813
5.47813
5.47814
5.47814
5.47814
5.47814
5.47813
5.47813
5.47812
5.47811
5.4781
5.47809
5.47807
5.47806
5.47804
5.47802
5.478
5.47798
5.47796
5.47794
5.47792
5.47789
5.47787
5.47784
5.47781
5.47778
5.47776
5.47773
5.47769
5.47766
5.47763
5.47759
5.47756
5.47752
5.47748
5.47743
5.47739
5.47734
5.47728
5.47723
5.47717
5.47711
5.47704
5.47698
5.47659
5.47664
5.4767
5.47675
5.4768
5.47685
5.47689
5.47693
5.47697
5.47701
5.47705
5.47708
5.47712
5.47715
5.47718
5.47721
5.47724
5.47727
5.47729
5.47732
5.47735
5.47737
5.4774
5.47742
5.47745
5.47747
5.47749
5.47751
5.47753
5.47755
5.47757
5.47759
5.4776
5.47761
5.47763
5.47763
5.47764
5.47765
5.47765
5.47765
5.47765
5.47765
5.47765
5.47764
5.47763
5.47763
5.47761
5.4776
5.47759
5.47757
5.47755
5.47753
5.47751
5.47749
5.47747
5.47745
5.47742
5.4774
5.47737
5.47735
5.47732
5.47729
5.47727
5.47724
5.47721
5.47718
5.47715
5.47712
5.47708
5.47705
5.47701
5.47697
5.47693
5.47689
5.47685
5.4768
5.47675
5.4767
5.47664
5.47659
5.47622
5.47626
5.47631
5.47635
5.47639
5.47643
5.47647
5.4765
5.47654
5.47657
5.4766
5.47663
5.47666
5.47669
5.47672
5.47674
5.47677
5.4768
5.47682
5.47685
5.47687
5.4769
5.47692
5.47695
5.47697
5.47699
5.47702
5.47704
5.47706
5.47708
5.47709
5.47711
5.47712
5.47714
5.47715
5.47716
5.47717
5.47717
5.47718
5.47718
5.47718
5.47718
5.47717
5.47717
5.47716
5.47715
5.47714
5.47712
5.47711
5.47709
5.47708
5.47706
5.47704
5.47702
5.47699
5.47697
5.47695
5.47692
5.4769
5.47687
5.47685
5.47682
5.4768
5.47677
5.47674
5.47672
5.47669
5.47666
5.47663
5.4766
5.47657
5.47654
5.4765
5.47647
5.47643
5.47639
5.47635
5.47631
5.47626
5.47622
5.47586
5.47589
5.47593
5.47596
5.47599
5.47603
5.47606
5.47609
5.47612
5.47614
5.47617
5.4762
5.47622
5.47625
5.47627
5.4763
5.47632
5.47635
5.47637
5.4764
5.47642
5.47644
5.47646
5.47649
5.47651
5.47653
5.47655
5.47657
5.47659
5.47661
5.47663
5.47664
5.47666
5.47667
5.47668
5.47669
5.4767
5.4767
5.47671
5.47671
5.47671
5.47671
5.4767
5.4767
5.47669
5.47668
5.47667
5.47666
5.47664
5.47663
5.47661
5.47659
5.47657
5.47655
5.47653
5.47651
5.47649
5.47646
5.47644
5.47642
5.4764
5.47637
5.47635
5.47632
5.4763
5.47627
5.47625
5.47622
5.4762
5.47617
5.47614
5.47612
5.47609
5.47606
5.47603
5.47599
5.47596
5.47593
5.47589
5.47586
5.47549
5.47552
5.47555
5.47558
5.47561
5.47563
5.47566
5.47569
5.47571
5.47573
5.47576
5.47578
5.4758
5.47582
5.47585
5.47587
5.47589
5.47591
5.47593
5.47596
5.47598
5.476
5.47602
5.47604
5.47606
5.47608
5.4761
5.47612
5.47614
5.47615
5.47617
5.47619
5.4762
5.47621
5.47622
5.47623
5.47624
5.47624
5.47625
5.47625
5.47625
5.47625
5.47624
5.47624
5.47623
5.47622
5.47621
5.4762
5.47619
5.47617
5.47615
5.47614
5.47612
5.4761
5.47608
5.47606
5.47604
5.47602
5.476
5.47598
5.47596
5.47593
5.47591
5.47589
5.47587
5.47585
5.47582
5.4758
5.47578
5.47576
5.47573
5.47571
5.47569
5.47566
5.47563
5.47561
5.47558
5.47555
5.47552
5.47549
5.47513
5.47516
5.47518
5.47521
5.47523
5.47525
5.47527
5.47529
5.47531
5.47533
5.47535
5.47537
5.47539
5.47541
5.47543
5.47545
5.47547
5.47549
5.47551
5.47553
5.47555
5.47557
5.47559
5.47561
5.47563
5.47564
5.47566
5.47568
5.4757
5.47571
5.47573
5.47574
5.47575
5.47576
5.47577
5.47578
5.47579
5.47579
5.4758
5.4758
5.4758
5.4758
5.47579
5.47579
5.47578
5.47577
5.47576
5.47575
5.47574
5.47573
5.47571
5.4757
5.47568
5.47566
5.47564
5.47563
5.47561
5.47559
5.47557
5.47555
5.47553
5.47551
5.47549
5.47547
5.47545
5.47543
5.47541
5.47539
5.47537
5.47535
5.47533
5.47531
5.47529
5.47527
5.47525
5.47523
5.47521
5.47518
5.47516
5.47513
5.47478
5.4748
5.47482
5.47484
5.47485
5.47487
5.47489
5.47491
5.47493
5.47494
5.47496
5.47498
5.47499
5.47501
5.47503
5.47504
5.47506
5.47508
5.4751
5.47511
5.47513
5.47515
5.47516
5.47518
5.4752
5.47522
5.47523
5.47525
5.47526
5.47528
5.47529
5.4753
5.47531
5.47532
5.47533
5.47534
5.47535
5.47535
5.47535
5.47536
5.47536
5.47535
5.47535
5.47535
5.47534
5.47533
5.47532
5.47531
5.4753
5.47529
5.47528
5.47526
5.47525
5.47523
5.47522
5.4752
5.47518
5.47516
5.47515
5.47513
5.47511
5.4751
5.47508
5.47506
5.47504
5.47503
5.47501
5.47499
5.47498
5.47496
5.47494
5.47493
5.47491
5.47489
5.47487
5.47485
5.47484
5.47482
5.4748
5.47478
5.47442
5.47444
5.47445
5.47447
5.47448
5.4745
5.47451
5.47453
5.47454
5.47456
5.47457
5.47459
5.4746
5.47461
5.47463
5.47464
5.47466
5.47467
5.47469
5.4747
5.47472
5.47474
5.47475
5.47477
5.47478
5.4748
5.47481
5.47482
5.47484
5.47485
5.47486
5.47487
5.47488
5.47489
5.4749
5.47491
5.47491
5.47492
5.47492
5.47492
5.47492
5.47492
5.47492
5.47491
5.47491
5.4749
5.47489
5.47488
5.47487
5.47486
5.47485
5.47484
5.47482
5.47481
5.4748
5.47478
5.47477
5.47475
5.47474
5.47472
5.4747
5.47469
5.47467
5.47466
5.47464
5.47463
5.47461
5.4746
5.47459
5.47457
5.47456
5.47454
5.47453
5.47451
5.4745
5.47448
5.47447
5.47445
5.47444
5.47442
5.47407
5.47408
5.47409
5.4741
5.47412
5.47413
5.47414
5.47415
5.47416
5.47418
5.47419
5.4742
5.47421
5.47423
5.47424
5.47425
5.47426
5.47428
5.47429
5.4743
5.47432
5.47433
5.47434
5.47436
5.47437
5.47438
5.4744
5.47441
5.47442
5.47443
5.47444
5.47445
5.47446
5.47447
5.47448
5.47448
5.47449
5.47449
5.4745
5.4745
5.4745
5.4745
5.47449
5.47449
5.47448
5.47448
5.47447
5.47446
5.47445
5.47444
5.47443
5.47442
5.47441
5.4744
5.47438
5.47437
5.47436
5.47434
5.47433
5.47432
5.4743
5.47429
5.47428
5.47426
5.47425
5.47424
5.47423
5.47421
5.4742
5.47419
5.47418
5.47416
5.47415
5.47414
5.47413
5.47412
5.4741
5.47409
5.47408
5.47407
5.47371
5.47372
5.47373
5.47374
5.47375
5.47376
5.47377
5.47378
5.47379
5.4738
5.47381
5.47382
5.47383
5.47384
5.47385
5.47386
5.47387
5.47389
5.4739
5.47391
5.47392
5.47393
5.47394
5.47396
5.47397
5.47398
5.47399
5.474
5.47401
5.47402
5.47403
5.47404
5.47405
5.47406
5.47406
5.47407
5.47407
5.47408
5.47408
5.47408
5.47408
5.47408
5.47408
5.47407
5.47407
5.47406
5.47406
5.47405
5.47404
5.47403
5.47402
5.47401
5.474
5.47399
5.47398
5.47397
5.47396
5.47394
5.47393
5.47392
5.47391
5.4739
5.47389
5.47387
5.47386
5.47385
5.47384
5.47383
5.47382
5.47381
5.4738
5.47379
5.47378
5.47377
5.47376
5.47375
5.47374
5.47373
5.47372
5.47371
5.47335
5.47336
5.47337
5.47338
5.47338
5.47339
5.4734
5.47341
5.47342
5.47343
5.47343
5.47344
5.47345
5.47346
5.47347
5.47348
5.47349
5.4735
5.47351
5.47352
5.47353
5.47354
5.47355
5.47356
5.47357
5.47358
5.47359
5.4736
5.47361
5.47362
5.47363
5.47363
5.47364
5.47365
5.47365
5.47366
5.47366
5.47366
5.47367
5.47367
5.47367
5.47367
5.47366
5.47366
5.47366
5.47365
5.47365
5.47364
5.47363
5.47363
5.47362
5.47361
5.4736
5.47359
5.47358
5.47357
5.47356
5.47355
5.47354
5.47353
5.47352
5.47351
5.4735
5.47349
5.47348
5.47347
5.47346
5.47345
5.47344
5.47343
5.47343
5.47342
5.47341
5.4734
5.47339
5.47338
5.47338
5.47337
5.47336
5.47335
5.47299
5.473
5.47301
5.47301
5.47302
5.47303
5.47303
5.47304
5.47305
5.47305
5.47306
5.47307
5.47308
5.47308
5.47309
5.4731
5.47311
5.47312
5.47312
5.47313
5.47314
5.47315
5.47316
5.47317
5.47318
5.47319
5.47319
5.4732
5.47321
5.47322
5.47323
5.47323
5.47324
5.47324
5.47325
5.47325
5.47326
5.47326
5.47326
5.47326
5.47326
5.47326
5.47326
5.47326
5.47325
5.47325
5.47324
5.47324
5.47323
5.47323
5.47322
5.47321
5.4732
5.47319
5.47319
5.47318
5.47317
5.47316
5.47315
5.47314
5.47313
5.47312
5.47312
5.47311
5.4731
5.47309
5.47308
5.47308
5.47307
5.47306
5.47305
5.47305
5.47304
5.47303
5.47303
5.47302
5.47301
5.47301
5.473
5.47299
5.47263
5.47264
5.47264
5.47265
5.47265
5.47266
5.47267
5.47267
5.47268
5.47268
5.47269
5.47269
5.4727
5.47271
5.47271
5.47272
5.47273
5.47273
5.47274
5.47275
5.47276
5.47276
5.47277
5.47278
5.47279
5.4728
5.4728
5.47281
5.47282
5.47282
5.47283
5.47284
5.47284
5.47285
5.47285
5.47285
5.47286
5.47286
5.47286
5.47286
5.47286
5.47286
5.47286
5.47286
5.47285
5.47285
5.47285
5.47284
5.47284
5.47283
5.47282
5.47282
5.47281
5.4728
5.4728
5.47279
5.47278
5.47277
5.47276
5.47276
5.47275
5.47274
5.47273
5.47273
5.47272
5.47271
5.47271
5.4727
5.47269
5.47269
5.47268
5.47268
5.47267
5.47267
5.47266
5.47265
5.47265
5.47264
5.47264
5.47263
5.47227
5.47228
5.47228
5.47229
5.47229
5.47229
5.4723
5.4723
5.47231
5.47231
5.47232
5.47232
5.47233
5.47233
5.47234
5.47234
5.47235
5.47236
5.47236
5.47237
5.47238
5.47238
5.47239
5.4724
5.4724
5.47241
5.47241
5.47242
5.47243
5.47243
5.47244
5.47244
5.47245
5.47245
5.47246
5.47246
5.47246
5.47246
5.47246
5.47247
5.47247
5.47246
5.47246
5.47246
5.47246
5.47246
5.47245
5.47245
5.47244
5.47244
5.47243
5.47243
5.47242
5.47241
5.47241
5.4724
5.4724
5.47239
5.47238
5.47238
5.47237
5.47236
5.47236
5.47235
5.47234
5.47234
5.47233
5.47233
5.47232
5.47232
5.47231
5.47231
5.4723
5.4723
5.47229
5.47229
5.47229
5.47228
5.47228
5.47227
5.47191
5.47191
5.47192
5.47192
5.47192
5.47193
5.47193
5.47194
5.47194
5.47194
5.47195
5.47195
5.47196
5.47196
5.47197
5.47197
5.47198
5.47198
5.47199
5.47199
5.472
5.472
5.47201
5.47201
5.47202
5.47202
5.47203
5.47204
5.47204
5.47205
5.47205
5.47205
5.47206
5.47206
5.47206
5.47207
5.47207
5.47207
5.47207
5.47207
5.47207
5.47207
5.47207
5.47207
5.47207
5.47206
5.47206
5.47206
5.47205
5.47205
5.47205
5.47204
5.47204
5.47203
5.47202
5.47202
5.47201
5.47201
5.472
5.472
5.47199
5.47199
5.47198
5.47198
5.47197
5.47197
5.47196
5.47196
5.47195
5.47195
5.47194
5.47194
5.47194
5.47193
5.47193
5.47192
5.47192
5.47192
5.47191
5.47191
5.47155
5.47155
5.47155
5.47156
5.47156
5.47156
5.47156
5.47157
5.47157
5.47157
5.47158
5.47158
5.47158
5.47159
5.47159
5.4716
5.4716
5.47161
5.47161
5.47161
5.47162
5.47162
5.47163
5.47163
5.47164
5.47164
5.47165
5.47165
5.47166
5.47166
5.47166
5.47167
5.47167
5.47167
5.47168
5.47168
5.47168
5.47168
5.47168
5.47168
5.47168
5.47168
5.47168
5.47168
5.47168
5.47168
5.47167
5.47167
5.47167
5.47166
5.47166
5.47166
5.47165
5.47165
5.47164
5.47164
5.47163
5.47163
5.47162
5.47162
5.47161
5.47161
5.47161
5.4716
5.4716
5.47159
5.47159
5.47158
5.47158
5.47158
5.47157
5.47157
5.47157
5.47156
5.47156
5.47156
5.47156
5.47155
5.47155
5.47155
5.47119
5.47119
5.47119
5.47119
5.47119
5.4712
5.4712
5.4712
5.4712
5.47121
5.47121
5.47121
5.47121
5.47122
5.47122
5.47122
5.47123
5.47123
5.47123
5.47124
5.47124
5.47125
5.47125
5.47125
5.47126
5.47126
5.47127
5.47127
5.47127
5.47128
5.47128
5.47128
5.47129
5.47129
5.47129
5.47129
5.4713
5.4713
5.4713
5.4713
5.4713
5.4713
5.4713
5.4713
5.47129
5.47129
5.47129
5.47129
5.47128
5.47128
5.47128
5.47127
5.47127
5.47127
5.47126
5.47126
5.47125
5.47125
5.47125
5.47124
5.47124
5.47123
5.47123
5.47123
5.47122
5.47122
5.47122
5.47121
5.47121
5.47121
5.47121
5.4712
5.4712
5.4712
5.4712
5.47119
5.47119
5.47119
5.47119
5.47119
5.47082
5.47082
5.47082
5.47083
5.47083
5.47083
5.47083
5.47083
5.47083
5.47084
5.47084
5.47084
5.47084
5.47085
5.47085
5.47085
5.47085
5.47086
5.47086
5.47086
5.47087
5.47087
5.47087
5.47088
5.47088
5.47088
5.47089
5.47089
5.47089
5.4709
5.4709
5.4709
5.47091
5.47091
5.47091
5.47091
5.47091
5.47091
5.47091
5.47091
5.47091
5.47091
5.47091
5.47091
5.47091
5.47091
5.47091
5.47091
5.4709
5.4709
5.4709
5.47089
5.47089
5.47089
5.47088
5.47088
5.47088
5.47087
5.47087
5.47087
5.47086
5.47086
5.47086
5.47085
5.47085
5.47085
5.47085
5.47084
5.47084
5.47084
5.47084
5.47083
5.47083
5.47083
5.47083
5.47083
5.47083
5.47082
5.47082
5.47082
5.47046
5.47046
5.47046
5.47046
5.47046
5.47046
5.47046
5.47046
5.47047
5.47047
5.47047
5.47047
5.47047
5.47048
5.47048
5.47048
5.47048
5.47049
5.47049
5.47049
5.47049
5.4705
5.4705
5.4705
5.4705
5.47051
5.47051
5.47051
5.47052
5.47052
5.47052
5.47052
5.47052
5.47053
5.47053
5.47053
5.47053
5.47053
5.47053
5.47053
5.47053
5.47053
5.47053
5.47053
5.47053
5.47053
5.47053
5.47052
5.47052
5.47052
5.47052
5.47052
5.47051
5.47051
5.47051
5.4705
5.4705
5.4705
5.4705
5.47049
5.47049
5.47049
5.47049
5.47048
5.47048
5.47048
5.47048
5.47047
5.47047
5.47047
5.47047
5.47047
5.47046
5.47046
5.47046
5.47046
5.47046
5.47046
5.47046
5.47046
5.47009
5.47009
5.47009
5.47009
5.47009
5.47009
5.47009
5.4701
5.4701
5.4701
5.4701
5.4701
5.4701
5.47011
5.47011
5.47011
5.47011
5.47011
5.47012
5.47012
5.47012
5.47012
5.47012
5.47013
5.47013
5.47013
5.47013
5.47014
5.47014
5.47014
5.47014
5.47014
5.47015
5.47015
5.47015
5.47015
5.47015
5.47015
5.47015
5.47015
5.47015
5.47015
5.47015
5.47015
5.47015
5.47015
5.47015
5.47015
5.47014
5.47014
5.47014
5.47014
5.47014
5.47013
5.47013
5.47013
5.47013
5.47012
5.47012
5.47012
5.47012
5.47012
5.47011
5.47011
5.47011
5.47011
5.47011
5.4701
5.4701
5.4701
5.4701
5.4701
5.4701
5.47009
5.47009
5.47009
5.47009
5.47009
5.47009
5.47009
5.46972
5.46972
5.46972
5.46972
5.46972
5.46973
5.46973
5.46973
5.46973
5.46973
5.46973
5.46973
5.46973
5.46973
5.46974
5.46974
5.46974
5.46974
5.46974
5.46974
5.46975
5.46975
5.46975
5.46975
5.46975
5.46976
5.46976
5.46976
5.46976
5.46976
5.46977
5.46977
5.46977
5.46977
5.46977
5.46977
5.46977
5.46977
5.46977
5.46977
5.46977
5.46977
5.46977
5.46977
5.46977
5.46977
5.46977
5.46977
5.46977
5.46977
5.46976
5.46976
5.46976
5.46976
5.46976
5.46975
5.46975
5.46975
5.46975
5.46975
5.46974
5.46974
5.46974
5.46974
5.46974
5.46974
5.46973
5.46973
5.46973
5.46973
5.46973
5.46973
5.46973
5.46973
5.46973
5.46972
5.46972
5.46972
5.46972
5.46972
5.46935
5.46935
5.46936
5.46936
5.46936
5.46936
5.46936
5.46936
5.46936
5.46936
5.46936
5.46936
5.46936
5.46936
5.46937
5.46937
5.46937
5.46937
5.46937
5.46937
5.46937
5.46938
5.46938
5.46938
5.46938
5.46938
5.46938
5.46939
5.46939
5.46939
5.46939
5.46939
5.46939
5.46939
5.46939
5.4694
5.4694
5.4694
5.4694
5.4694
5.4694
5.4694
5.4694
5.4694
5.4694
5.46939
5.46939
5.46939
5.46939
5.46939
5.46939
5.46939
5.46939
5.46938
5.46938
5.46938
5.46938
5.46938
5.46938
5.46937
5.46937
5.46937
5.46937
5.46937
5.46937
5.46937
5.46936
5.46936
5.46936
5.46936
5.46936
5.46936
5.46936
5.46936
5.46936
5.46936
5.46936
5.46936
5.46935
5.46935
5.46899
5.46899
5.46899
5.46899
5.46899
5.46899
5.46899
5.46899
5.46899
5.46899
5.46899
5.46899
5.46899
5.46899
5.46899
5.469
5.469
5.469
5.469
5.469
5.469
5.469
5.469
5.46901
5.46901
5.46901
5.46901
5.46901
5.46901
5.46901
5.46901
5.46902
5.46902
5.46902
5.46902
5.46902
5.46902
5.46902
5.46902
5.46902
5.46902
5.46902
5.46902
5.46902
5.46902
5.46902
5.46902
5.46902
5.46902
5.46901
5.46901
5.46901
5.46901
5.46901
5.46901
5.46901
5.46901
5.469
5.469
5.469
5.469
5.469
5.469
5.469
5.469
5.46899
5.46899
5.46899
5.46899
5.46899
5.46899
5.46899
5.46899
5.46899
5.46899
5.46899
5.46899
5.46899
5.46899
5.46899
5.46862
5.46862
5.46862
5.46862
5.46862
5.46862
5.46862
5.46862
5.46862
5.46862
5.46862
5.46862
5.46862
5.46862
5.46862
5.46862
5.46863
5.46863
5.46863
5.46863
5.46863
5.46863
5.46863
5.46863
5.46863
5.46864
5.46864
5.46864
5.46864
5.46864
5.46864
5.46864
5.46864
5.46864
5.46864
5.46864
5.46864
5.46864
5.46865
5.46865
5.46865
5.46865
5.46864
5.46864
5.46864
5.46864
5.46864
5.46864
5.46864
5.46864
5.46864
5.46864
5.46864
5.46864
5.46864
5.46863
5.46863
5.46863
5.46863
5.46863
5.46863
5.46863
5.46863
5.46863
5.46862
5.46862
5.46862
5.46862
5.46862
5.46862
5.46862
5.46862
5.46862
5.46862
5.46862
5.46862
5.46862
5.46862
5.46862
5.46862
5.46825
5.46825
5.46825
5.46825
5.46825
5.46825
5.46825
5.46825
5.46825
5.46825
5.46825
5.46825
5.46825
5.46825
5.46825
5.46825
5.46825
5.46826
5.46826
5.46826
5.46826
5.46826
5.46826
5.46826
5.46826
5.46826
5.46826
5.46826
5.46827
5.46827
5.46827
5.46827
5.46827
5.46827
5.46827
5.46827
5.46827
5.46827
5.46827
5.46827
5.46827
5.46827
5.46827
5.46827
5.46827
5.46827
5.46827
5.46827
5.46827
5.46827
5.46827
5.46827
5.46826
5.46826
5.46826
5.46826
5.46826
5.46826
5.46826
5.46826
5.46826
5.46826
5.46826
5.46825
5.46825
5.46825
5.46825
5.46825
5.46825
5.46825
5.46825
5.46825
5.46825
5.46825
5.46825
5.46825
5.46825
5.46825
5.46825
5.46825
5.46788
5.46788
5.46788
5.46788
5.46788
5.46788
5.46788
5.46788
5.46788
5.46788
5.46788
5.46788
5.46788
5.46788
5.46788
5.46788
5.46788
5.46788
5.46788
5.46789
5.46789
5.46789
5.46789
5.46789
5.46789
5.46789
5.46789
5.46789
5.46789
5.46789
5.46789
5.46789
5.46789
5.46789
5.4679
5.4679
5.4679
5.4679
5.4679
5.4679
5.4679
5.4679
5.4679
5.4679
5.4679
5.4679
5.46789
5.46789
5.46789
5.46789
5.46789
5.46789
5.46789
5.46789
5.46789
5.46789
5.46789
5.46789
5.46789
5.46789
5.46789
5.46788
5.46788
5.46788
5.46788
5.46788
5.46788
5.46788
5.46788
5.46788
5.46788
5.46788
5.46788
5.46788
5.46788
5.46788
5.46788
5.46788
5.46788
5.46788
5.46751
5.46751
5.46751
5.46751
5.46751
5.46751
5.46751
5.46751
5.46751
5.46751
5.46751
5.46751
5.46751
5.46751
5.46751
5.46751
5.46751
5.46751
5.46751
5.46751
5.46751
5.46751
5.46752
5.46752
5.46752
5.46752
5.46752
5.46752
5.46752
5.46752
5.46752
5.46752
5.46752
5.46752
5.46752
5.46752
5.46752
5.46752
5.46752
5.46752
5.46752
5.46752
5.46752
5.46752
5.46752
5.46752
5.46752
5.46752
5.46752
5.46752
5.46752
5.46752
5.46752
5.46752
5.46752
5.46752
5.46752
5.46752
5.46751
5.46751
5.46751
5.46751
5.46751
5.46751
5.46751
5.46751
5.46751
5.46751
5.46751
5.46751
5.46751
5.46751
5.46751
5.46751
5.46751
5.46751
5.46751
5.46751
5.46751
5.46751
5.46714
5.46714
5.46714
5.46714
5.46714
5.46714
5.46714
5.46714
5.46714
5.46714
5.46714
5.46714
5.46714
5.46714
5.46714
5.46714
5.46714
5.46714
5.46714
5.46714
5.46714
5.46714
5.46714
5.46714
5.46714
5.46715
5.46715
5.46715
5.46715
5.46715
5.46715
5.46715
5.46715
5.46715
5.46715
5.46715
5.46715
5.46715
5.46715
5.46715
5.46715
5.46715
5.46715
5.46715
5.46715
5.46715
5.46715
5.46715
5.46715
5.46715
5.46715
5.46715
5.46715
5.46715
5.46715
5.46714
5.46714
5.46714
5.46714
5.46714
5.46714
5.46714
5.46714
5.46714
5.46714
5.46714
5.46714
5.46714
5.46714
5.46714
5.46714
5.46714
5.46714
5.46714
5.46714
5.46714
5.46714
5.46714
5.46714
5.46714
5.46677
5.46677
5.46677
5.46677
5.46677
5.46677
5.46677
5.46677
5.46677
5.46677
5.46677
5.46677
5.46677
5.46677
5.46677
5.46677
5.46677
5.46677
5.46677
5.46677
5.46677
5.46677
5.46677
5.46677
5.46677
5.46677
5.46677
5.46677
5.46677
5.46677
5.46677
5.46678
5.46678
5.46678
5.46678
5.46678
5.46678
5.46678
5.46678
5.46678
5.46678
5.46678
5.46678
5.46678
5.46678
5.46678
5.46678
5.46678
5.46678
5.46677
5.46677
5.46677
5.46677
5.46677
5.46677
5.46677
5.46677
5.46677
5.46677
5.46677
5.46677
5.46677
5.46677
5.46677
5.46677
5.46677
5.46677
5.46677
5.46677
5.46677
5.46677
5.46677
5.46677
5.46677
5.46677
5.46677
5.46677
5.46677
5.46677
5.46677
5.4664
5.4664
5.4664
5.4664
5.4664
5.4664
5.4664
5.4664
5.4664
5.4664
5.4664
5.4664
5.4664
5.4664
5.4664
5.4664
5.4664
5.4664
5.4664
5.4664
5.4664
5.4664
5.4664
5.4664
5.4664
5.4664
5.4664
5.4664
5.4664
5.4664
5.4664
5.4664
5.4664
5.4664
5.4664
5.4664
5.4664
5.4664
5.4664
5.4664
5.4664
5.4664
5.4664
5.4664
5.4664
5.4664
5.4664
5.4664
5.4664
5.4664
5.4664
5.4664
5.4664
5.4664
5.4664
5.4664
5.4664
5.4664
5.4664
5.4664
5.4664
5.4664
5.4664
5.4664
5.4664
5.4664
5.4664
5.4664
5.4664
5.4664
5.4664
5.4664
5.4664
5.4664
5.4664
5.4664
5.4664
5.4664
5.4664
5.4664
5.46603
5.46603
5.46603
5.46603
5.46603
5.46603
5.46603
5.46603
5.46603
5.46603
5.46603
5.46603
5.46603
5.46603
5.46603
5.46603
5.46603
5.46603
5.46603
5.46603
5.46603
5.46603
5.46603
5.46603
5.46603
5.46603
5.46603
5.46603
5.46603
5.46603
5.46603
5.46603
5.46603
5.46603
5.46603
5.46603
5.46603
5.46603
5.46603
5.46603
5.46603
5.46603
5.46603
5.46603
5.46603
5.46603
5.46603
5.46603
5.46603
5.46603
5.46603
5.46603
5.46603
5.46603
5.46603
5.46603
5.46603
5.46603
5.46603
5.46603
5.46603
5.46603
5.46603
5.46603
5.46603
5.46603
5.46603
5.46603
5.46603
5.46603
5.46603
5.46603
5.46603
5.46603
5.46603
5.46603
5.46603
5.46603
5.46603
5.46603
5.46566
5.46565
5.46565
5.46565
5.46565
5.46565
5.46565
5.46565
5.46565
5.46565
5.46565
5.46565
5.46565
5.46565
5.46566
5.46566
5.46566
5.46566
5.46566
5.46566
5.46566
5.46566
5.46566
5.46566
5.46566
5.46566
5.46566
5.46566
5.46566
5.46566
5.46566
5.46566
5.46566
5.46566
5.46566
5.46566
5.46566
5.46566
5.46566
5.46566
5.46566
5.46566