/*--------------------------------*- C++ -*----------------------------------*\
  =========                 |
  \\      /  F ield         | OpenFOAM: The Open Source CFD Toolbox
   \\    /   O peration     | Website:  https://openfoam.org
    \\  /    A nd           | Version:  11
     \\/     M anipulation  |
\*---------------------------------------------------------------------------*/
FoamFile
{
    format      ascii;
    class       volScalarField;
    location    "20";
    object      C;
}
// * * * * * * * * * * * * * * * * * * * * * * * * * * * * * * * * * * * * * //

dimensions      [0 0 0 1 0 0 0];

internalField   nonuniform List<scalar> 
427520
(
5.18628e-68
5.08944e-68
4.92621e-68
4.71687e-68
4.47614e-68
4.21528e-68
3.94316e-68
3.66682e-68
3.39182e-68
3.12252e-68
2.86225e-68
2.61346e-68
2.37788e-68
2.15664e-68
1.95036e-68
1.75926e-68
1.58325e-68
1.42198e-68
1.27491e-68
1.14138e-68
1.02061e-68
9.11805e-69
8.14112e-69
7.26688e-69
6.48702e-69
5.79353e-69
5.17879e-69
4.63563e-69
4.15739e-69
3.73794e-69
3.3717e-69
3.05361e-69
2.77917e-69
2.54438e-69
2.34576e-69
2.18029e-69
2.04545e-69
1.93912e-69
1.85963e-69
1.80573e-69
1.77654e-69
1.7716e-69
1.79081e-69
1.83445e-69
1.9032e-69
1.9981e-69
2.12059e-69
2.27249e-69
2.45603e-69
2.67387e-69
2.92905e-69
3.22506e-69
3.56581e-69
3.95564e-69
4.3993e-69
4.90192e-69
5.469e-69
6.10632e-69
6.81992e-69
7.61592e-69
8.50047e-69
9.47949e-69
1.05585e-68
1.17425e-68
1.30353e-68
1.44394e-68
1.59556e-68
1.75822e-68
1.93146e-68
2.11445e-68
2.30591e-68
2.50405e-68
2.70641e-68
2.90978e-68
3.11008e-68
3.30211e-68
3.47935e-68
3.63351e-68
3.75373e-68
3.82506e-68
1.60036e-67
1.57782e-67
1.53744e-67
1.48327e-67
1.41874e-67
1.3468e-67
1.26995e-67
1.19028e-67
1.10956e-67
1.02921e-67
9.50389e-68
8.74015e-68
8.00775e-68
7.31175e-68
6.65557e-68
6.04131e-68
5.46993e-68
4.94147e-68
4.45527e-68
4.01009e-68
3.60426e-68
3.23584e-68
2.90268e-68
2.60249e-68
2.33299e-68
2.09188e-68
1.87691e-68
1.68595e-68
1.51697e-68
1.36806e-68
1.23746e-68
1.12357e-68
1.02495e-68
9.4028e-69
8.6843e-69
8.08401e-69
7.59347e-69
7.20563e-69
6.91484e-69
6.71679e-69
6.60853e-69
6.58837e-69
6.65592e-69
6.81205e-69
7.0589e-69
7.39986e-69
7.83957e-69
8.38396e-69
9.04022e-69
9.81681e-69
1.07235e-68
1.17711e-68
1.29721e-68
1.43395e-68
1.58879e-68
1.76324e-68
1.95892e-68
2.17747e-68
2.42056e-68
2.68981e-68
2.98679e-68
3.31291e-68
3.66937e-68
4.05707e-68
4.47649e-68
4.92758e-68
5.40962e-68
5.92107e-68
6.4594e-68
7.02089e-68
7.60044e-68
8.19137e-68
8.78515e-68
9.37122e-68
9.93668e-68
1.0466e-67
1.09409e-67
1.13397e-67
1.16369e-67
1.18029e-67
2.77392e-67
2.74033e-67
2.67886e-67
2.59481e-67
2.49304e-67
2.37791e-67
2.25329e-67
2.12256e-67
1.98863e-67
1.85396e-67
1.7206e-67
1.59021e-67
1.4641e-67
1.34329e-67
1.22851e-67
1.12027e-67
1.01888e-67
9.2448e-68
8.37064e-68
7.56528e-68
6.82677e-68
6.15253e-68
5.53949e-68
4.98429e-68
4.48337e-68
4.03311e-68
3.62989e-68
3.27018e-68
2.9506e-68
2.66792e-68
2.41914e-68
2.20149e-68
2.01242e-68
1.84966e-68
1.71119e-68
1.59521e-68
1.50023e-68
1.42495e-68
1.36837e-68
1.32968e-68
1.30835e-68
1.30407e-68
1.31673e-68
1.34649e-68
1.39372e-68
1.459e-68
1.54315e-68
1.64721e-68
1.77242e-68
1.92026e-68
2.0924e-68
2.29072e-68
2.51729e-68
2.77434e-68
3.06425e-68
3.38953e-68
3.75274e-68
4.15647e-68
4.60327e-68
5.09556e-68
5.63553e-68
6.22505e-68
6.8655e-68
7.55765e-68
8.30145e-68
9.09586e-68
9.9386e-68
1.08259e-67
1.17524e-67
1.27107e-67
1.36909e-67
1.46809e-67
1.56656e-67
1.66269e-67
1.75434e-67
1.83903e-67
1.9139e-67
1.97574e-67
2.02097e-67
2.04569e-67
4.08051e-67
4.03602e-67
3.9537e-67
3.83999e-67
3.70094e-67
3.5422e-67
3.36888e-67
3.18556e-67
2.99628e-67
2.80452e-67
2.61326e-67
2.42497e-67
2.24166e-67
2.06493e-67
1.89598e-67
1.73571e-67
1.58471e-67
1.44333e-67
1.31171e-67
1.18981e-67
1.07747e-67
9.74404e-68
8.80254e-68
7.94602e-68
7.16989e-68
6.46936e-68
5.83952e-68
5.27554e-68
4.77266e-68
4.32636e-68
3.93232e-68
3.58655e-68
3.28536e-68
3.02541e-68
2.80371e-68
2.61761e-68
2.46486e-68
2.34354e-68
2.2521e-68
2.18936e-68
2.15447e-68
2.14694e-68
2.16661e-68
2.21369e-68
2.2887e-68
2.39248e-68
2.52623e-68
2.69145e-68
2.88995e-68
3.12386e-68
3.39558e-68
3.70778e-68
4.0634e-68
4.46557e-68
4.91757e-68
5.42283e-68
5.98478e-68
6.60685e-68
7.29227e-68
8.04404e-68
8.86472e-68
9.75628e-68
1.07199e-67
1.17558e-67
1.28628e-67
1.40384e-67
1.52782e-67
1.65756e-67
1.79217e-67
1.93047e-67
2.07098e-67
2.21188e-67
2.35099e-67
2.48574e-67
2.61315e-67
2.72987e-67
2.83211e-67
2.91574e-67
2.97629e-67
3.00902e-67
5.56113e-67
5.50504e-67
5.4006e-67
5.2554e-67
5.07677e-67
4.87159e-67
4.64624e-67
4.40649e-67
4.15754e-67
3.90394e-67
3.64962e-67
3.39791e-67
3.15158e-67
2.91288e-67
2.68357e-67
2.46497e-67
2.25803e-67
2.06338e-67
1.88133e-67
1.71199e-67
1.55525e-67
1.41085e-67
1.2784e-67
1.15744e-67
1.04741e-67
9.47731e-68
8.57799e-68
7.76996e-68
7.04717e-68
6.40372e-68
5.83399e-68
5.33269e-68
4.8949e-68
4.51615e-68
4.19239e-68
3.92006e-68
3.69606e-68
3.51777e-68
3.38305e-68
3.29027e-68
3.23823e-68
3.22624e-68
3.25407e-68
3.32194e-68
3.43052e-68
3.58096e-68
3.77483e-68
4.0141e-68
4.3012e-68
4.63891e-68
5.03039e-68
5.47915e-68
5.98897e-68
6.56387e-68
7.20802e-68
7.92572e-68
8.7212e-68
9.59858e-68
1.05617e-67
1.16138e-67
1.27577e-67
1.39952e-67
1.5327e-67
1.67521e-67
1.82682e-67
1.98707e-67
2.15525e-67
2.33038e-67
2.51116e-67
2.69595e-67
2.88269e-67
3.06895e-67
3.25182e-67
3.42795e-67
3.59355e-67
3.74433e-67
3.87563e-67
3.98236e-67
4.05915e-67
4.10039e-67
7.25972e-67
7.19073e-67
7.06177e-67
6.88177e-67
6.6594e-67
6.40294e-67
6.12008e-67
5.81791e-67
5.50284e-67
5.18054e-67
4.85601e-67
4.53349e-67
4.21659e-67
3.90825e-67
3.61086e-67
3.32625e-67
3.05577e-67
2.80036e-67
2.5606e-67
2.33673e-67
2.12877e-67
1.93649e-67
1.75951e-67
1.59732e-67
1.44931e-67
1.31479e-67
1.19304e-67
1.08333e-67
9.84907e-68
8.97049e-68
8.19053e-68
7.50256e-68
6.90036e-68
6.37822e-68
5.93097e-68
5.55402e-68
5.24336e-68
4.99558e-68
4.80792e-68
4.67818e-68
4.60482e-68
4.58688e-68
4.62403e-68
4.71651e-68
4.86516e-68
5.0714e-68
5.33718e-68
5.66502e-68
6.05794e-68
6.51944e-68
7.05345e-68
7.66432e-68
8.35671e-68
9.13551e-68
1.00058e-67
1.09727e-67
1.20412e-67
1.32159e-67
1.45013e-67
1.59007e-67
1.7417e-67
1.90515e-67
2.0804e-67
2.26725e-67
2.46527e-67
2.67377e-67
2.89174e-67
3.11782e-67
3.35026e-67
3.58689e-67
3.82507e-67
4.06164e-67
4.29296e-67
4.51485e-67
4.72259e-67
4.91097e-67
5.07433e-67
5.20658e-67
5.30135e-67
5.35205e-67
9.22529e-67
9.14162e-67
8.98479e-67
8.7653e-67
8.4934e-67
8.1789e-67
7.83101e-67
7.45826e-67
7.0684e-67
6.66838e-67
6.26432e-67
5.86151e-67
5.46445e-67
5.07692e-67
4.70194e-67
4.34194e-67
3.99872e-67
3.67361e-67
3.36746e-67
3.08072e-67
2.81352e-67
2.56573e-67
2.33698e-67
2.12673e-67
1.93431e-67
1.75894e-67
1.59979e-67
1.456e-67
1.32667e-67
1.21095e-67
1.10798e-67
1.01695e-67
9.37107e-68
8.67739e-68
8.08208e-68
7.57942e-68
7.16441e-68
6.83277e-68
6.58099e-68
6.40631e-68
6.30674e-68
6.28105e-68
6.32876e-68
6.45012e-68
6.64614e-68
6.9185e-68
7.26959e-68
7.70247e-68
8.2208e-68
8.82881e-68
9.53127e-68
1.03334e-67
1.12407e-67
1.22591e-67
1.33944e-67
1.46527e-67
1.60396e-67
1.75603e-67
1.92196e-67
2.10211e-67
2.29672e-67
2.50587e-67
2.72945e-67
2.96711e-67
3.21819e-67
3.48173e-67
3.75638e-67
4.04035e-67
4.33141e-67
4.62677e-67
4.92314e-67
5.2166e-67
5.50267e-67
5.77623e-67
6.03159e-67
6.26249e-67
6.46213e-67
6.62331e-67
6.73849e-67
6.79995e-67
1.15139e-66
1.14132e-66
1.12242e-66
1.09592e-66
1.06303e-66
1.02491e-66
9.82656e-67
9.3728e-67
8.89715e-67
8.40797e-67
7.91268e-67
7.41774e-67
6.92867e-67
6.45013e-67
5.98594e-67
5.53915e-67
5.11211e-67
4.70655e-67
4.32365e-67
3.96412e-67
3.62823e-67
3.31595e-67
3.02693e-67
2.76063e-67
2.51631e-67
2.2931e-67
2.09007e-67
1.9062e-67
1.74048e-67
1.59187e-67
1.45936e-67
1.34199e-67
1.23885e-67
1.14908e-67
1.07191e-67
1.00664e-67
9.5266e-68
9.09447e-68
8.76567e-68
8.53678e-68
8.40531e-68
8.3697e-68
8.42929e-68
8.58436e-68
8.83603e-68
9.18631e-68
9.63803e-68
1.01948e-67
1.0861e-67
1.16416e-67
1.25423e-67
1.35692e-67
1.47289e-67
1.6028e-67
1.74735e-67
1.9072e-67
2.08301e-67
2.27536e-67
2.48473e-67
2.71151e-67
2.95589e-67
3.21789e-67
3.49727e-67
3.79348e-67
4.10565e-67
4.43248e-67
4.77223e-67
5.12265e-67
5.48092e-67
5.84362e-67
6.20668e-67
6.56534e-67
6.91415e-67
7.24698e-67
7.55698e-67
7.83669e-67
8.07805e-67
8.27254e-67
8.41126e-67
8.48515e-67
1.41903e-66
1.40698e-66
1.38434e-66
1.35255e-66
1.31304e-66
1.26717e-66
1.21625e-66
1.16148e-66
1.10398e-66
1.04473e-66
9.84643e-67
9.24483e-67
8.64924e-67
8.06534e-67
7.49783e-67
6.95047e-67
6.42624e-67
5.92735e-67
5.45534e-67
5.0112e-67
4.59539e-67
4.20798e-67
3.84867e-67
3.51691e-67
3.2119e-67
2.93269e-67
2.67819e-67
2.44727e-67
2.23873e-67
2.05138e-67
1.88403e-67
1.73555e-67
1.60484e-67
1.49091e-67
1.39281e-67
1.30972e-67
1.2409e-67
1.18571e-67
1.14363e-67
1.11424e-67
1.09723e-67
1.09242e-67
1.09972e-67
1.11914e-67
1.15083e-67
1.195e-67
1.252e-67
1.32225e-67
1.40625e-67
1.5046e-67
1.61794e-67
1.74701e-67
1.89254e-67
2.05532e-67
2.23614e-67
2.43575e-67
2.65488e-67
2.89417e-67
3.15412e-67
3.43513e-67
3.73734e-67
4.06068e-67
4.40476e-67
4.76883e-67
5.15173e-67
5.55182e-67
5.9669e-67
6.39417e-67
6.83018e-67
7.27075e-67
7.71095e-67
8.14504e-67
8.5665e-67
8.96796e-67
9.34131e-67
9.67765e-67
9.96745e-67
1.02007e-66
1.03668e-66
1.04551e-66
1.73303e-66
1.71867e-66
1.69164e-66
1.65365e-66
1.60639e-66
1.55147e-66
1.49043e-66
1.42471e-66
1.35561e-66
1.28433e-66
1.21193e-66
1.13934e-66
1.06738e-66
9.96716e-67
9.27931e-67
8.61483e-67
7.97738e-67
7.36971e-67
6.79382e-67
6.25098e-67
5.7419e-67
5.26675e-67
4.8253e-67
4.41697e-67
4.04091e-67
3.69606e-67
3.3812e-67
3.09502e-67
2.83616e-67
2.60323e-67
2.39484e-67
2.20967e-67
2.04643e-67
1.90394e-67
1.78109e-67
1.67688e-67
1.59045e-67
1.52104e-67
1.468e-67
1.43085e-67
1.40921e-67
1.40284e-67
1.41164e-67
1.43562e-67
1.47492e-67
1.52982e-67
1.60069e-67
1.68804e-67
1.79244e-67
1.91459e-67
2.05524e-67
2.21523e-67
2.39541e-67
2.59668e-67
2.81994e-67
3.06604e-67
3.33579e-67
3.62987e-67
3.94885e-67
4.29309e-67
4.6627e-67
5.05749e-67
5.47691e-67
5.91997e-67
6.3852e-67
6.87052e-67
7.37324e-67
7.88993e-67
8.4164e-67
8.94761e-67
9.47763e-67
9.99959e-67
1.05057e-66
1.09872e-66
1.14345e-66
1.18369e-66
1.21834e-66
1.24618e-66
1.266e-66
1.27654e-66
2.10229e-66
2.08519e-66
2.053e-66
2.00774e-66
1.95138e-66
1.88584e-66
1.81293e-66
1.73436e-66
1.65167e-66
1.56629e-66
1.47948e-66
1.39236e-66
1.30587e-66
1.22086e-66
1.138e-66
1.05785e-66
9.80868e-67
9.07381e-67
8.3764e-67
7.71811e-67
7.09986e-67
6.52199e-67
5.98433e-67
5.48628e-67
5.02692e-67
4.60507e-67
4.21936e-67
3.86828e-67
3.55027e-67
3.26371e-67
3.00701e-67
2.77861e-67
2.57701e-67
2.40081e-67
2.24872e-67
2.11956e-67
2.01229e-67
1.92602e-67
1.85998e-67
1.81359e-67
1.7864e-67
1.77811e-67
1.78859e-67
1.81786e-67
1.86606e-67
1.93352e-67
2.02066e-67
2.12806e-67
2.2564e-67
2.40647e-67
2.57915e-67
2.77539e-67
2.99619e-67
3.24256e-67
3.51552e-67
3.81605e-67
4.14503e-67
4.50323e-67
4.89123e-67
5.30939e-67
5.75777e-67
6.23605e-67
6.7435e-67
7.27884e-67
7.84024e-67
8.42514e-67
9.03026e-67
9.65146e-67
1.02837e-66
1.09209e-66
1.1556e-66
1.21807e-66
1.2786e-66
1.33612e-66
1.38951e-66
1.43751e-66
1.4788e-66
1.51196e-66
1.53555e-66
1.54808e-66
2.53725e-66
2.51693e-66
2.47867e-66
2.42483e-66
2.35776e-66
2.27971e-66
2.19285e-66
2.09916e-66
2.00051e-66
1.89857e-66
1.79483e-66
1.69063e-66
1.58711e-66
1.48525e-66
1.38588e-66
1.28967e-66
1.19715e-66
1.10874e-66
1.02475e-66
9.45377e-67
8.70748e-67
8.0091e-67
7.35854e-67
6.75519e-67
6.19802e-67
5.68573e-67
5.21676e-67
4.78938e-67
4.4018e-67
4.05215e-67
3.73857e-67
3.45924e-67
3.21243e-67
2.99648e-67
2.80988e-67
2.65124e-67
2.51935e-67
2.41313e-67
2.33169e-67
2.27433e-67
2.24051e-67
2.22988e-67
2.24226e-67
2.27767e-67
2.33628e-67
2.41844e-67
2.52465e-67
2.65558e-67
2.812e-67
2.99484e-67
3.2051e-67
3.44388e-67
3.71231e-67
4.01158e-67
4.34283e-67
4.70716e-67
5.10558e-67
5.53891e-67
6.0078e-67
6.51257e-67
7.05324e-67
7.62934e-67
8.23991e-67
8.88338e-67
9.55745e-67
1.02591e-66
1.09842e-66
1.17279e-66
1.24842e-66
1.32457e-66
1.40041e-66
1.47496e-66
1.54713e-66
1.61567e-66
1.67924e-66
1.73636e-66
1.78547e-66
1.82489e-66
1.85291e-66
1.86779e-66
3.05026e-66
3.02614e-66
2.98071e-66
2.91675e-66
2.83704e-66
2.74426e-66
2.64094e-66
2.52945e-66
2.41199e-66
2.29054e-66
2.16688e-66
2.04258e-66
1.91901e-66
1.79734e-66
1.67855e-66
1.56345e-66
1.45267e-66
1.34673e-66
1.24598e-66
1.15069e-66
1.06101e-66
9.77013e-67
8.98687e-67
8.25972e-67
7.58756e-67
6.96891e-67
6.40201e-67
5.88487e-67
5.41541e-67
4.99147e-67
4.6109e-67
4.27158e-67
3.97147e-67
3.70865e-67
3.48134e-67
3.28791e-67
3.12692e-67
2.99712e-67
2.89746e-67
2.82708e-67
2.78536e-67
2.77188e-67
2.78642e-67
2.82897e-67
2.89975e-67
2.99914e-67
3.12773e-67
3.28626e-67
3.47566e-67
3.69697e-67
3.95136e-67
4.24008e-67
4.56446e-67
4.92584e-67
5.32552e-67
5.76476e-67
6.24468e-67
6.76622e-67
7.33005e-67
7.93651e-67
8.58551e-67
9.27645e-67
1.00081e-66
1.07785e-66
1.1585e-66
1.24237e-66
1.32899e-66
1.41776e-66
1.50796e-66
1.59874e-66
1.68908e-66
1.77784e-66
1.86371e-66
1.94522e-66
2.02079e-66
2.08866e-66
2.14697e-66
2.19377e-66
2.22703e-66
2.24468e-66
3.65589e-66
3.62728e-66
3.57337e-66
3.49747e-66
3.40284e-66
3.29265e-66
3.16991e-66
3.03742e-66
2.89776e-66
2.75331e-66
2.60615e-66
2.45817e-66
2.31097e-66
2.16596e-66
2.02429e-66
1.88693e-66
1.75465e-66
1.62806e-66
1.50759e-66
1.39357e-66
1.28617e-66
1.1855e-66
1.09155e-66
1.00427e-66
9.23513e-67
8.49127e-67
7.80905e-67
7.18621e-67
6.62031e-67
6.10887e-67
5.64936e-67
5.23933e-67
4.87639e-67
4.5583e-67
4.28295e-67
4.04846e-67
3.85311e-67
3.69545e-67
3.57422e-67
3.48842e-67
3.43731e-67
3.42038e-67
3.43736e-67
3.48826e-67
3.57328e-67
3.69287e-67
3.84772e-67
4.03868e-67
4.26682e-67
4.53333e-67
4.83958e-67
5.18702e-67
5.57715e-67
6.01153e-67
6.49165e-67
7.01895e-67
7.59469e-67
8.21992e-67
8.89537e-67
9.62138e-67
1.03978e-66
1.12238e-66
1.20979e-66
1.30176e-66
1.39798e-66
1.49798e-66
1.60121e-66
1.70693e-66
1.81431e-66
1.9223e-66
2.02974e-66
2.13523e-66
2.23725e-66
2.33406e-66
2.42377e-66
2.50432e-66
2.57351e-66
2.62901e-66
2.66845e-66
2.68937e-66
4.37136e-66
4.33744e-66
4.27351e-66
4.18348e-66
4.07123e-66
3.94048e-66
3.79479e-66
3.63748e-66
3.47163e-66
3.30001e-66
3.12512e-66
2.94918e-66
2.7741e-66
2.60154e-66
2.43289e-66
2.26928e-66
2.11165e-66
1.96071e-66
1.817e-66
1.68089e-66
1.55261e-66
1.43229e-66
1.31994e-66
1.21547e-66
1.11877e-66
1.02963e-66
9.47817e-67
8.73074e-67
8.05117e-67
7.43657e-67
6.884e-67
6.39059e-67
5.95354e-67
5.57023e-67
5.23821e-67
4.95524e-67
4.71933e-67
4.52873e-67
4.382e-67
4.27795e-67
4.21568e-67
4.19459e-67
4.21437e-67
4.275e-67
4.37671e-67
4.52003e-67
4.70573e-67
4.93481e-67
5.20849e-67
5.52818e-67
5.89543e-67
6.31193e-67
6.77943e-67
7.2997e-67
7.87448e-67
8.5054e-67
9.19392e-67
9.9412e-67
1.0748e-66
1.16148e-66
1.25412e-66
1.35262e-66
1.45681e-66
1.56638e-66
1.68094e-66
1.79996e-66
1.92275e-66
2.04846e-66
2.17608e-66
2.30439e-66
2.43197e-66
2.55722e-66
2.6783e-66
2.79317e-66
2.89958e-66
2.99509e-66
3.07711e-66
3.14291e-66
3.18964e-66
3.21443e-66
5.21703e-66
5.17684e-66
5.10106e-66
4.99433e-66
4.86122e-66
4.70616e-66
4.53335e-66
4.34672e-66
4.14989e-66
3.94617e-66
3.73852e-66
3.52956e-66
3.32155e-66
3.11647e-66
2.91595e-66
2.72137e-66
2.53381e-66
2.35413e-66
2.18299e-66
2.02081e-66
1.8679e-66
1.7244e-66
1.59033e-66
1.46562e-66
1.3501e-66
1.24355e-66
1.14571e-66
1.05627e-66
9.74907e-67
9.01278e-67
8.35042e-67
7.75863e-67
7.23414e-67
6.77387e-67
6.37495e-67
6.03474e-67
5.75091e-67
5.52141e-67
5.34452e-67
5.21885e-67
5.14333e-67
5.11726e-67
5.14025e-67
5.21225e-67
5.33356e-67
5.50476e-67
5.72674e-67
6.00066e-67
6.32794e-67
6.71021e-67
7.14928e-67
7.6471e-67
8.2057e-67
8.82714e-67
9.51341e-67
1.02664e-66
1.10878e-66
1.19789e-66
1.29405e-66
1.39732e-66
1.50764e-66
1.62489e-66
1.74885e-66
1.87917e-66
2.01537e-66
2.15681e-66
2.30268e-66
2.45198e-66
2.60349e-66
2.75577e-66
2.90716e-66
3.05573e-66
3.19931e-66
3.3355e-66
3.46163e-66
3.57483e-66
3.67202e-66
3.74997e-66
3.80533e-66
3.83469e-66
6.21699e-66
6.16937e-66
6.07957e-66
5.95308e-66
5.79532e-66
5.6115e-66
5.40661e-66
5.1853e-66
4.95186e-66
4.7102e-66
4.46382e-66
4.21581e-66
3.9689e-66
3.72538e-66
3.48722e-66
3.25603e-66
3.03312e-66
2.81951e-66
2.61596e-66
2.42302e-66
2.24102e-66
2.07016e-66
1.91045e-66
1.76182e-66
1.62409e-66
1.497e-66
1.38024e-66
1.27346e-66
1.17627e-66
1.08828e-66
1.00908e-66
9.3829e-67
8.75518e-67
8.20404e-67
7.72611e-67
7.3183e-67
6.97786e-67
6.70238e-67
6.48983e-67
6.33857e-67
6.24734e-67
6.21529e-67
6.24197e-67
6.32731e-67
6.47163e-67
6.67562e-67
6.94029e-67
7.26702e-67
7.65743e-67
8.11342e-67
8.63711e-67
9.23076e-67
9.89673e-67
1.06374e-66
1.14551e-66
1.2352e-66
1.333e-66
1.43907e-66
1.5535e-66
1.67633e-66
1.8075e-66
1.94687e-66
2.09417e-66
2.24897e-66
2.41071e-66
2.57863e-66
2.75175e-66
2.92889e-66
3.10861e-66
3.28921e-66
3.46871e-66
3.64483e-66
3.81501e-66
3.97639e-66
4.12584e-66
4.25994e-66
4.37506e-66
4.46738e-66
4.53293e-66
4.5677e-66
7.39975e-66
7.34333e-66
7.23694e-66
7.08708e-66
6.90014e-66
6.6823e-66
6.43947e-66
6.17713e-66
5.90038e-66
5.61384e-66
5.32166e-66
5.0275e-66
4.73457e-66
4.44561e-66
4.16295e-66
3.8885e-66
3.62381e-66
3.37009e-66
3.12826e-66
2.89895e-66
2.68259e-66
2.4794e-66
2.28941e-66
2.11254e-66
1.94857e-66
1.79722e-66
1.65812e-66
1.53085e-66
1.41497e-66
1.31002e-66
1.21552e-66
1.13101e-66
1.05605e-66
9.90199e-67
9.33073e-67
8.84306e-67
8.43572e-67
8.10589e-67
7.85116e-67
7.66961e-67
7.55974e-67
7.52055e-67
7.55148e-67
7.65247e-67
7.82385e-67
8.06643e-67
8.3814e-67
8.77034e-67
9.23515e-67
9.77806e-67
1.04015e-66
1.11082e-66
1.19008e-66
1.27821e-66
1.37548e-66
1.48215e-66
1.59844e-66
1.72451e-66
1.86049e-66
2.00641e-66
2.16221e-66
2.32769e-66
2.50254e-66
2.68626e-66
2.87815e-66
3.07733e-66
3.28265e-66
3.49269e-66
3.70574e-66
3.9198e-66
4.13251e-66
4.34119e-66
4.54281e-66
4.73398e-66
4.91098e-66
5.06979e-66
5.20611e-66
5.31542e-66
5.39303e-66
5.43419e-66
8.79903e-66
8.7322e-66
8.60619e-66
8.42865e-66
8.20718e-66
7.9491e-66
7.66136e-66
7.35049e-66
7.0225e-66
6.68286e-66
6.33649e-66
5.98774e-66
5.64038e-66
5.29769e-66
4.9624e-66
4.63679e-66
4.3227e-66
4.02156e-66
3.73447e-66
3.46218e-66
3.2052e-66
2.96379e-66
2.73802e-66
2.52777e-66
2.3328e-66
2.15278e-66
1.98728e-66
1.83581e-66
1.69785e-66
1.57285e-66
1.46027e-66
1.35956e-66
1.27019e-66
1.19166e-66
1.1235e-66
1.0653e-66
1.01665e-66
9.77244e-67
9.46783e-67
9.25042e-67
9.11845e-67
9.07073e-67
9.1066e-67
9.22595e-67
9.42919e-67
9.71724e-67
1.00915e-66
1.05538e-66
1.11063e-66
1.17518e-66
1.24929e-66
1.33329e-66
1.42749e-66
1.53222e-66
1.6478e-66
1.77451e-66
1.91261e-66
2.06232e-66
2.22374e-66
2.39693e-66
2.5818e-66
2.77813e-66
2.98552e-66
3.20339e-66
3.43093e-66
3.66705e-66
3.91041e-66
4.15932e-66
4.41177e-66
4.66538e-66
4.91736e-66
5.16453e-66
5.40331e-66
5.62969e-66
5.83928e-66
6.02731e-66
6.18871e-66
6.3181e-66
6.40997e-66
6.4587e-66
1.04548e-65
1.03756e-65
1.02264e-65
1.00161e-65
9.75375e-66
9.44802e-66
9.10714e-66
8.73883e-66
8.3502e-66
7.94774e-66
7.53726e-66
7.12391e-66
6.71217e-66
6.30591e-66
5.90837e-66
5.52224e-66
5.14972e-66
4.7925e-66
4.45188e-66
4.12876e-66
3.82376e-66
3.53717e-66
3.26907e-66
3.01936e-66
2.78775e-66
2.57384e-66
2.37713e-66
2.19705e-66
2.03299e-66
1.88431e-66
1.75035e-66
1.63048e-66
1.52409e-66
1.43057e-66
1.34937e-66
1.28001e-66
1.22201e-66
1.175e-66
1.13864e-66
1.11265e-66
1.09684e-66
1.09105e-66
1.09521e-66
1.1093e-66
1.13338e-66
1.16754e-66
1.21196e-66
1.26684e-66
1.33245e-66
1.40909e-66
1.4971e-66
1.59684e-66
1.70869e-66
1.83301e-66
1.9702e-66
2.12058e-66
2.28445e-66
2.46206e-66
2.65355e-66
2.85895e-66
3.07818e-66
3.31095e-66
3.5568e-66
3.81504e-66
4.08468e-66
4.36447e-66
4.65279e-66
4.94767e-66
5.2467e-66
5.54706e-66
5.84546e-66
6.13816e-66
6.42088e-66
6.6889e-66
6.93703e-66
7.15962e-66
7.35066e-66
7.50383e-66
7.61256e-66
7.67023e-66
1.24142e-65
1.23205e-65
1.21437e-65
1.18947e-65
1.1584e-65
1.12218e-65
1.08181e-65
1.03818e-65
9.9214e-66
9.44459e-66
8.95824e-66
8.46844e-66
7.98052e-66
7.49903e-66
7.02783e-66
6.57011e-66
6.12846e-66
5.7049e-66
5.30095e-66
4.91772e-66
4.5559e-66
4.21588e-66
3.89774e-66
3.60136e-66
3.32641e-66
3.07242e-66
2.83881e-66
2.62491e-66
2.42998e-66
2.25329e-66
2.09406e-66
1.95155e-66
1.82502e-66
1.71377e-66
1.61716e-66
1.5346e-66
1.46555e-66
1.40955e-66
1.3662e-66
1.33519e-66
1.31626e-66
1.30926e-66
1.31409e-66
1.33072e-66
1.35922e-66
1.39971e-66
1.45238e-66
1.51747e-66
1.59531e-66
1.68623e-66
1.79065e-66
1.90897e-66
2.04166e-66
2.18913e-66
2.35184e-66
2.53019e-66
2.72451e-66
2.93509e-66
3.1621e-66
3.40558e-66
3.6654e-66
3.94125e-66
4.23256e-66
4.53851e-66
4.85794e-66
5.18936e-66
5.53084e-66
5.88005e-66
6.23416e-66
6.58981e-66
6.94312e-66
7.28964e-66
7.62434e-66
7.94161e-66
8.23532e-66
8.49879e-66
8.7249e-66
8.90618e-66
9.03486e-66
9.10311e-66
1.47333e-65
1.46223e-65
1.4413e-65
1.41181e-65
1.37501e-65
1.33212e-65
1.2843e-65
1.23262e-65
1.17809e-65
1.12161e-65
1.064e-65
1.00597e-65
9.48162e-66
8.91111e-66
8.35274e-66
7.81031e-66
7.28686e-66
6.78479e-66
6.30593e-66
5.85157e-66
5.42254e-66
5.01929e-66
4.64196e-66
4.29037e-66
3.96416e-66
3.66277e-66
3.38551e-66
3.1316e-66
2.90018e-66
2.69036e-66
2.50125e-66
2.33195e-66
2.1816e-66
2.04939e-66
1.93455e-66
1.83638e-66
1.75424e-66
1.6876e-66
1.63599e-66
1.59902e-66
1.57642e-66
1.56797e-66
1.57357e-66
1.5932e-66
1.62691e-66
1.67486e-66
1.73727e-66
1.81442e-66
1.90669e-66
2.01449e-66
2.13829e-66
2.27858e-66
2.43587e-66
2.61071e-66
2.80358e-66
3.01497e-66
3.24528e-66
3.49484e-66
3.76383e-66
4.05231e-66
4.36013e-66
4.6869e-66
5.03196e-66
5.39432e-66
5.77262e-66
6.16508e-66
6.56943e-66
6.9829e-66
7.40214e-66
7.82318e-66
8.24143e-66
8.65161e-66
9.04778e-66
9.42331e-66
9.77093e-66
1.00828e-65
1.03504e-65
1.05649e-65
1.07172e-65
1.07979e-65
1.74783e-65
1.73469e-65
1.7099e-65
1.67498e-65
1.6314e-65
1.58061e-65
1.52398e-65
1.46277e-65
1.39819e-65
1.33129e-65
1.26305e-65
1.19431e-65
1.12583e-65
1.05825e-65
9.92093e-66
9.27823e-66
8.65797e-66
8.06301e-66
7.4955e-66
6.95696e-66
6.4484e-66
5.97036e-66
5.52298e-66
5.10608e-66
4.71922e-66
4.36175e-66
4.03286e-66
3.73161e-66
3.45701e-66
3.20801e-66
2.98354e-66
2.78256e-66
2.60404e-66
2.44703e-66
2.31062e-66
2.19398e-66
2.09637e-66
2.01713e-66
1.95574e-66
1.91172e-66
1.88475e-66
1.87458e-66
1.88109e-66
1.90424e-66
1.94411e-66
2.00086e-66
2.07477e-66
2.16617e-66
2.27549e-66
2.40323e-66
2.54992e-66
2.71616e-66
2.90255e-66
3.10972e-66
3.33824e-66
3.58869e-66
3.86154e-66
4.15717e-66
4.4758e-66
4.81749e-66
5.18205e-66
5.56904e-66
5.97765e-66
6.40672e-66
6.85464e-66
7.31929e-66
7.79799e-66
8.28746e-66
8.78373e-66
9.28212e-66
9.77717e-66
1.02627e-65
1.07315e-65
1.1176e-65
1.15874e-65
1.19564e-65
1.22731e-65
1.2527e-65
1.27072e-65
1.28027e-65
2.07276e-65
2.0572e-65
2.02784e-65
1.98649e-65
1.93489e-65
1.87475e-65
1.80768e-65
1.7352e-65
1.65871e-65
1.57948e-65
1.49866e-65
1.41725e-65
1.33614e-65
1.25608e-65
1.17772e-65
1.10158e-65
1.0281e-65
9.57606e-66
8.90362e-66
8.26547e-66
7.6628e-66
7.09624e-66
6.56597e-66
6.07178e-66
5.61316e-66
5.18933e-66
4.79933e-66
4.44209e-66
4.1164e-66
3.82103e-66
3.55473e-66
3.31626e-66
3.10442e-66
2.91807e-66
2.75613e-66
2.61763e-66
2.5017e-66
2.40757e-66
2.33459e-66
2.28222e-66
2.25008e-66
2.23786e-66
2.24542e-66
2.27272e-66
2.31985e-66
2.38701e-66
2.4745e-66
2.58273e-66
2.71221e-66
2.8635e-66
3.03726e-66
3.23417e-66
3.45496e-66
3.70034e-66
3.97101e-66
4.26764e-66
4.59079e-66
4.94089e-66
5.31821e-66
5.72282e-66
6.15449e-66
6.61268e-66
7.09645e-66
7.60441e-66
8.13467e-66
8.6847e-66
9.25135e-66
9.83071e-66
1.04181e-65
1.1008e-65
1.15939e-65
1.21685e-65
1.27234e-65
1.32493e-65
1.37362e-65
1.41729e-65
1.45476e-65
1.4848e-65
1.50612e-65
1.51743e-65
2.4574e-65
2.43897e-65
2.40422e-65
2.35525e-65
2.29415e-65
2.22293e-65
2.14351e-65
2.05769e-65
1.96711e-65
1.87328e-65
1.77757e-65
1.68115e-65
1.58508e-65
1.49026e-65
1.39745e-65
1.30726e-65
1.22022e-65
1.13671e-65
1.05705e-65
9.81447e-66
9.1004e-66
8.42908e-66
7.80071e-66
7.21506e-66
6.6715e-66
6.16914e-66
5.70684e-66
5.28332e-66
4.89718e-66
4.54694e-66
4.23114e-66
3.94832e-66
3.69704e-66
3.47596e-66
3.28381e-66
3.11945e-66
2.98184e-66
2.87007e-66
2.78337e-66
2.72112e-66
2.68283e-66
2.66818e-66
2.67697e-66
2.70917e-66
2.76488e-66
2.84432e-66
2.94786e-66
3.07598e-66
3.22927e-66
3.40842e-66
3.61417e-66
3.84734e-66
4.10878e-66
4.39934e-66
4.71986e-66
5.0711e-66
5.45371e-66
5.86823e-66
6.31497e-66
6.79398e-66
7.30501e-66
7.84741e-66
8.42008e-66
9.02136e-66
9.649e-66
1.03e-65
1.09707e-65
1.16564e-65
1.23516e-65
1.30497e-65
1.3743e-65
1.4423e-65
1.50797e-65
1.57021e-65
1.62782e-65
1.67949e-65
1.72383e-65
1.75938e-65
1.78461e-65
1.79799e-65
2.91274e-65
2.89092e-65
2.84977e-65
2.79179e-65
2.71944e-65
2.63512e-65
2.54107e-65
2.43944e-65
2.33219e-65
2.22108e-65
2.10773e-65
1.99355e-65
1.87978e-65
1.76749e-65
1.65756e-65
1.55075e-65
1.44765e-65
1.34874e-65
1.25438e-65
1.16482e-65
1.08023e-65
1.0007e-65
9.26248e-66
8.56856e-66
7.92449e-66
7.32918e-66
6.78131e-66
6.27936e-66
5.82166e-66
5.40649e-66
5.03211e-66
4.69678e-66
4.39883e-66
4.13665e-66
3.90875e-66
3.71378e-66
3.5505e-66
3.41785e-66
3.31491e-66
3.24094e-66
3.19538e-66
3.17783e-66
3.18806e-66
3.22604e-66
3.29186e-66
3.38582e-66
3.50832e-66
3.65995e-66
3.8414e-66
4.05346e-66
4.29704e-66
4.57308e-66
4.8826e-66
5.2266e-66
5.60605e-66
6.02185e-66
6.47481e-66
6.96551e-66
7.49433e-66
8.06135e-66
8.66625e-66
9.30826e-66
9.98607e-66
1.06977e-65
1.14406e-65
1.22111e-65
1.30048e-65
1.38163e-65
1.46389e-65
1.54651e-65
1.62856e-65
1.70902e-65
1.78673e-65
1.86038e-65
1.92855e-65
1.98969e-65
2.04216e-65
2.08422e-65
2.11408e-65
2.12991e-65
3.45179e-65
3.42596e-65
3.37724e-65
3.30859e-65
3.22292e-65
3.12307e-65
3.01172e-65
2.89138e-65
2.76437e-65
2.63281e-65
2.49859e-65
2.36338e-65
2.22866e-65
2.09567e-65
1.96549e-65
1.83899e-65
1.71689e-65
1.59975e-65
1.48799e-65
1.3819e-65
1.28171e-65
1.18749e-65
1.0993e-65
1.0171e-65
9.40791e-66
8.70259e-66
8.05344e-66
7.45864e-66
6.91626e-66
6.42424e-66
5.98052e-66
5.58305e-66
5.22984e-66
4.91902e-66
4.6488e-66
4.41759e-66
4.22393e-66
4.06655e-66
3.94437e-66
3.85653e-66
3.80234e-66
3.78133e-66
3.79326e-66
3.83804e-66
3.91582e-66
4.02692e-66
4.17185e-66
4.35127e-66
4.566e-66
4.81698e-66
5.10528e-66
5.43203e-66
5.7984e-66
6.20558e-66
6.65473e-66
7.14691e-66
7.68304e-66
8.26385e-66
8.88977e-66
9.56088e-66
1.02768e-65
1.10366e-65
1.18388e-65
1.26811e-65
1.35602e-65
1.4472e-65
1.54113e-65
1.63716e-65
1.73451e-65
1.83227e-65
1.92936e-65
2.02457e-65
2.11652e-65
2.20367e-65
2.28433e-65
2.35668e-65
2.41876e-65
2.46853e-65
2.50386e-65
2.52259e-65
4.08996e-65
4.05938e-65
4.00169e-65
3.92041e-65
3.81898e-65
3.70075e-65
3.5689e-65
3.42641e-65
3.27603e-65
3.12024e-65
2.96131e-65
2.80121e-65
2.64167e-65
2.4842e-65
2.33004e-65
2.18023e-65
2.03564e-65
1.8969e-65
1.76454e-65
1.6389e-65
1.52023e-65
1.40864e-65
1.30418e-65
1.20681e-65
1.11642e-65
1.03286e-65
9.55956e-66
8.85487e-66
8.21224e-66
7.62925e-66
7.10345e-66
6.63243e-66
6.21382e-66
5.84541e-66
5.5251e-66
5.25099e-66
5.02135e-66
4.83469e-66
4.68973e-66
4.58544e-66
4.52102e-66
4.49592e-66
4.50981e-66
4.56263e-66
4.65453e-66
4.7859e-66
4.95732e-66
5.16959e-66
5.42367e-66
5.72069e-66
6.06187e-66
6.44857e-66
6.88218e-66
7.36409e-66
7.89567e-66
8.47818e-66
9.11271e-66
9.8001e-66
1.05409e-65
1.13351e-65
1.21824e-65
1.30816e-65
1.40309e-65
1.50276e-65
1.60679e-65
1.71469e-65
1.82584e-65
1.93947e-65
2.05467e-65
2.17035e-65
2.28524e-65
2.3979e-65
2.50669e-65
2.60981e-65
2.70525e-65
2.79086e-65
2.86432e-65
2.9232e-65
2.965e-65
2.98717e-65
4.84549e-65
4.80928e-65
4.74098e-65
4.64473e-65
4.52464e-65
4.38466e-65
4.22854e-65
4.05983e-65
3.88176e-65
3.6973e-65
3.50911e-65
3.31953e-65
3.13063e-65
2.94416e-65
2.76161e-65
2.58422e-65
2.41299e-65
2.2487e-65
2.09195e-65
1.94316e-65
1.80261e-65
1.67046e-65
1.54673e-65
1.4314e-65
1.32434e-65
1.22537e-65
1.13427e-65
1.05079e-65
9.74664e-66
9.05595e-66
8.433e-66
7.87489e-66
7.37887e-66
6.94229e-66
6.56267e-66
6.23776e-66
5.96552e-66
5.74419e-66
5.57226e-66
5.44848e-66
5.37193e-66
5.34194e-66
5.35814e-66
5.42044e-66
5.52902e-66
5.68434e-66
5.88709e-66
6.1382e-66
6.43881e-66
6.79025e-66
7.19398e-66
7.65159e-66
8.16472e-66
8.73502e-66
9.36411e-66
1.00535e-65
1.08044e-65
1.16178e-65
1.24945e-65
1.34344e-65
1.4437e-65
1.55011e-65
1.66245e-65
1.78039e-65
1.90349e-65
2.03117e-65
2.16269e-65
2.29715e-65
2.43346e-65
2.57033e-65
2.70628e-65
2.83958e-65
2.96831e-65
3.09032e-65
3.20325e-65
3.30454e-65
3.39146e-65
3.46113e-65
3.51058e-65
3.53681e-65
5.73997e-65
5.69709e-65
5.61622e-65
5.50227e-65
5.36008e-65
5.19433e-65
5.00949e-65
4.80973e-65
4.59889e-65
4.38049e-65
4.15765e-65
3.93318e-65
3.7095e-65
3.4887e-65
3.27254e-65
3.06249e-65
2.85973e-65
2.66518e-65
2.47956e-65
2.30337e-65
2.13692e-65
1.98042e-65
1.8339e-65
1.6973e-65
1.5705e-65
1.45328e-65
1.34538e-65
1.24651e-65
1.15633e-65
1.07451e-65
1.00071e-65
9.34593e-66
8.75826e-66
8.24096e-66
7.79112e-66
7.40607e-66
7.0834e-66
6.82101e-66
6.61711e-66
6.47026e-66
6.37932e-66
6.34352e-66
6.36241e-66
6.4359e-66
6.56418e-66
6.74781e-66
6.98759e-66
7.28463e-66
7.64027e-66
8.05608e-66
8.53378e-66
9.07526e-66
9.68244e-66
1.03573e-65
1.11017e-65
1.19175e-65
1.2806e-65
1.37686e-65
1.4806e-65
1.59182e-65
1.71046e-65
1.83638e-65
1.9693e-65
2.10886e-65
2.25452e-65
2.4056e-65
2.56123e-65
2.72033e-65
2.88161e-65
3.04357e-65
3.20442e-65
3.36214e-65
3.51446e-65
3.65882e-65
3.79244e-65
3.91228e-65
4.01512e-65
4.09756e-65
4.15607e-65
4.1871e-65
6.79896e-65
6.74819e-65
6.65244e-65
6.51752e-65
6.34917e-65
6.15293e-65
5.93407e-65
5.69755e-65
5.44791e-65
5.18931e-65
4.92547e-65
4.65969e-65
4.39484e-65
4.13339e-65
3.87745e-65
3.62872e-65
3.38863e-65
3.15826e-65
2.93846e-65
2.72982e-65
2.53272e-65
2.34738e-65
2.17387e-65
2.01211e-65
1.86194e-65
1.72311e-65
1.59532e-65
1.47821e-65
1.3714e-65
1.27449e-65
1.18708e-65
1.10876e-65
1.03914e-65
9.77852e-66
9.24554e-66
8.78928e-66
8.40688e-66
8.09586e-66
7.85411e-66
7.67989e-66
7.57189e-66
7.52918e-66
7.55123e-66
7.63792e-66
7.78949e-66
8.00657e-66
8.29013e-66
8.64148e-66
9.06219e-66
9.55413e-66
1.01193e-65
1.076e-65
1.14784e-65
1.2277e-65
1.31578e-65
1.4123e-65
1.51745e-65
1.63135e-65
1.7541e-65
1.8857e-65
2.02609e-65
2.17508e-65
2.33237e-65
2.4975e-65
2.66985e-65
2.84861e-65