/*--------------------------------*- C++ -*----------------------------------*\
  =========                 |
  \\      /  F ield         | OpenFOAM: The Open Source CFD Toolbox
   \\    /   O peration     | Website:  https://openfoam.org
    \\  /    A nd           | Version:  11
     \\/     M anipulation  |
\*---------------------------------------------------------------------------*/
FoamFile
{
    format      ascii;
    class       volScalarField;
    location    "100";
    object      C;
}
// * * * * * * * * * * * * * * * * * * * * * * * * * * * * * * * * * * * * * //

dimensions      [0 0 0 1 0 0 0];

internalField   nonuniform List<scalar> 
427520
(
-3.08539e-310
-3.34599e-310
-3.49747e-310
-3.33842e-310
-3.13763e-310
-2.77811e-310
-2.4204e-310
-1.95535e-310
-1.5792e-310
-1.25011e-310
-1.03991e-310
-9.7418e-311
-7.02429e-311
-5.11728e-311
-3.04402e-311
-1.56745e-311
-6.3148e-312
3.1536e-313
1.41349e-312
-1.07396e-311
-1.28762e-311
-6.45191e-312
1.13016e-312
1.98799e-311
3.74284e-312
3.78137e-313
2.6709e-311
2.8556e-311
2.21867e-311
1.1735e-311
-8.57342e-312
-1.17042e-311
-1.12411e-311
3.02939e-312
3.69657e-312
-5.07258e-312
4.22379e-312
-8.41962e-313
-1.10567e-311
3.79553e-313
-1.71694e-311
-2.59835e-312
1.03086e-311
2.03901e-311
5.76349e-312
8.86613e-312
-2.35969e-312
3.49442e-312
-1.18895e-311
-1.88305e-311
1.36879e-311
2.5732e-311
1.83989e-311
3.36998e-311
1.99579e-311
1.8907e-311
1.64554e-311
2.49164e-311
1.81803e-311
1.72192e-311
-1.0085e-311
-4.46594e-312
-1.51397e-311
-2.11999e-311
-3.11016e-311
-1.44904e-311
-1.08135e-311
3.02992e-312
-1.1187e-312
-4.08598e-312
-9.20264e-313
9.48309e-312
6.47647e-312
1.26774e-311
-2.15193e-312
-5.50033e-312
-5.04601e-312
-2.36792e-313
-1.75015e-311
-9.13501e-312
-1.49959e-309
-1.37748e-309
-1.27237e-309
-1.19729e-309
-1.10233e-309
-9.78906e-310
-8.51312e-310
-7.03844e-310
-5.68219e-310
-4.57516e-310
-3.77028e-310
-3.07197e-310
-2.35191e-310
-1.66325e-310
-1.15367e-310
-9.29666e-311
-5.72484e-311
-3.5009e-311
-2.0732e-311
-2.03309e-311
-1.39693e-311
-5.5896e-312
2.77155e-312
1.89699e-311
2.15391e-311
2.24392e-311
3.98364e-311
2.69471e-311
2.47922e-311
1.25434e-311
3.02621e-312
8.39263e-312
3.14117e-311
2.28216e-311
1.53504e-311
-6.88358e-312
-8.06284e-312
-4.65539e-312
-2.17776e-311
-7.92335e-312
1.99812e-312
1.47667e-311
-2.26652e-312
1.34187e-311
-1.14009e-311
-6.69719e-313
1.227e-311
4.90932e-312
1.53056e-312
1.40471e-311
3.68726e-311
2.86466e-311
7.42907e-312
2.0551e-311
5.5009e-312
1.00075e-311
2.01747e-311
4.71795e-311
4.42489e-311
3.69786e-311
2.94635e-311
2.80798e-311
2.87619e-311
2.08477e-311
3.84139e-312
-3.5419e-312
-1.39959e-311
-2.03647e-311
-1.76948e-311
-1.77496e-311
-6.49543e-312
-2.02849e-311
-2.98805e-311
-1.71832e-311
-8.8132e-312
-4.38315e-312
7.05611e-312
-1.02414e-311
-2.49515e-311
-2.92825e-311
-5.64478e-309
-4.95968e-309
-4.39945e-309
-3.95225e-309
-3.51558e-309
-3.06396e-309
-2.61705e-309
-2.19227e-309
-1.78244e-309
-1.42128e-309
-1.12505e-309
-8.81473e-310
-6.8762e-310
-5.12241e-310
-3.90332e-310
-2.87586e-310
-2.1031e-310
-1.54173e-310
-1.01728e-310
-7.24826e-311
-4.97406e-311
-2.3208e-311
-2.03673e-311
-1.5385e-311
-2.00468e-312
5.54053e-312
9.54689e-312
-2.7555e-314
9.86092e-312
8.06636e-312
1.30066e-311
4.50061e-311
6.74714e-311
6.77373e-311
5.41848e-311
3.71487e-311
2.95607e-311
6.4512e-312
-3.12741e-312
1.36616e-311
2.36917e-312
1.42462e-311
-1.42728e-311
-1.02878e-311
-3.26232e-312
-1.42116e-311
-2.97409e-311
-1.72314e-311
-7.76766e-312
-1.26379e-311
2.47235e-311
2.10432e-311
1.2292e-311
1.1372e-311
4.4946e-312
-2.63825e-311
-3.84017e-311
-5.00731e-311
-4.21444e-311
-2.72089e-311
-1.27161e-311
6.87134e-312
3.01398e-311
4.34935e-311
6.62512e-311
7.89997e-311
7.15157e-311
4.0319e-311
2.66018e-311
2.9371e-311
2.91421e-311
2.4114e-312
-6.13866e-312
-8.82977e-312
-2.69483e-311
-2.56847e-311
-1.48502e-311
-3.35477e-311
-5.22894e-311
-8.1989e-311
-1.70554e-308
-1.51392e-308
-1.33662e-308
-1.18168e-308
-1.03127e-308
-8.86212e-309
-7.44566e-309
-6.1643e-309
-5.00464e-309
-3.97883e-309
-3.12678e-309
-2.43643e-309
-1.87388e-309
-1.41766e-309
-1.06263e-309
-7.91109e-310
-5.82674e-310
-4.11382e-310
-2.96912e-310
-2.25995e-310
-1.62779e-310
-1.25815e-310
-9.92438e-311
-4.60691e-311
-3.09249e-311
-1.41546e-311
-1.52982e-313
7.22825e-312
1.68336e-311
6.6388e-312
1.92104e-311
4.13781e-311
5.05794e-311
4.87676e-311
6.23515e-311
5.97162e-311
6.17706e-311
4.53174e-311
3.13181e-311
2.35636e-311
1.85143e-311
3.52433e-311
2.34176e-311
3.13721e-311
1.76792e-311
8.63473e-312
-1.04013e-311
-1.5599e-311
-3.94047e-311
-6.45651e-311
-4.43785e-311
-3.07945e-311
-7.79715e-312
1.5457e-311
2.26644e-311
3.42547e-311
3.17447e-311
4.56922e-312
-2.64735e-311
-5.69315e-311
-9.13823e-311
-1.15347e-310
-1.15804e-310
-1.00268e-310
-7.28119e-311
-3.87293e-311
-1.21207e-311
1.01433e-311
3.93771e-311
6.47723e-311
5.45345e-311
4.62908e-311
2.56984e-311
5.08616e-312
-1.19157e-311
-1.09973e-312
-8.92901e-312
-4.74943e-311
-7.7289e-311
-8.35457e-311
-4.62099e-308
-4.14714e-308
-3.69191e-308
-3.26835e-308
-2.84176e-308
-2.41982e-308
-2.01587e-308
-1.64991e-308
-1.32831e-308
-1.05506e-308
-8.282e-309
-6.44202e-309
-4.92927e-309
-3.75529e-309
-2.84016e-309
-2.10214e-309
-1.56035e-309
-1.14712e-309
-8.23529e-310
-5.9228e-310
-4.25992e-310
-3.29311e-310
-2.58791e-310
-2.0156e-310
-1.35917e-310
-9.36159e-311
-4.79679e-311
-2.46465e-311
1.08697e-311
2.47186e-311
4.32326e-311
5.8519e-311
7.83908e-311
6.35056e-311
6.56463e-311
4.07822e-311
2.58686e-311
1.22643e-311
-1.49604e-312
-1.62194e-311
-1.39095e-311
-9.28359e-312
5.53026e-312
3.58248e-311
2.37491e-311
1.56462e-311
1.39424e-311
1.04043e-311
-5.61302e-312
-4.45755e-311
-5.20176e-311
-4.90728e-311
-5.21133e-311
-3.04501e-311
1.70815e-311
7.04177e-311
1.44053e-310
1.78751e-310
2.04736e-310
2.06396e-310
1.93937e-310
1.59988e-310
1.00517e-310
3.30837e-311
-2.16163e-311
-5.28781e-311
-5.61687e-311
-6.81819e-311
-6.48124e-311
-3.08523e-311
5.97627e-312
3.95129e-311
3.97379e-311
2.40384e-311
5.37621e-312
-2.3216e-311
-5.58583e-311
-5.9853e-311
-1.19186e-310
-1.55099e-310
-1.16229e-307
-1.05188e-307
-9.48342e-308
-8.47507e-308
-7.4025e-308
-6.29533e-308
-5.2207e-308
-4.23881e-308
-3.3818e-308
-2.66059e-308
-2.06921e-308
-1.59374e-308
-1.21462e-308
-9.16795e-309
-6.86839e-309
-5.09274e-309
-3.75301e-309
-2.74039e-309
-1.98384e-309
-1.42887e-309
-1.02318e-309
-7.31516e-310
-5.39279e-310
-3.96311e-310
-2.89298e-310
-1.87996e-310
-1.1532e-310
-7.39768e-311
-1.74481e-311
1.66531e-311
3.55022e-311
7.98543e-311
9.68051e-311
9.05256e-311
7.40531e-311
4.35441e-311
3.14598e-311
1.63219e-311
-8.18994e-312
-3.4642e-311
-1.6144e-311
-1.37182e-311
-1.54602e-311
-3.6009e-314
-1.05495e-312
-1.00738e-311
1.30782e-311
2.64405e-311
5.8456e-311
6.40933e-311
6.43952e-311
4.15399e-311
8.04521e-313
-6.89574e-311
-1.27579e-310
-1.6955e-310
-1.83783e-310
-1.48218e-310
-7.76286e-311
2.84663e-311
1.4993e-310
2.38263e-310
3.10031e-310
3.33579e-310
3.05917e-310
2.75468e-310
2.18102e-310
1.42864e-310
1.07142e-310
7.9536e-311
6.90477e-311
8.53126e-311
5.55868e-311
2.84971e-311
-2.01855e-312
-5.05411e-311
-6.9072e-311
-1.01125e-310
-1.43123e-310
-1.65163e-310
-2.78407e-307
-2.5363e-307
-2.31573e-307
-2.09304e-307
-1.84224e-307
-1.57139e-307
-1.30203e-307
-1.05311e-307
-8.35356e-308
-6.51736e-308
-5.01862e-308
-3.82211e-308
-2.88144e-308
-2.15175e-308
-1.59436e-308
-1.17256e-308
-8.57469e-309
-6.2086e-309
-4.46161e-309
-3.19685e-309
-2.26741e-309
-1.59441e-309
-1.1186e-309
-7.73314e-310
-5.40129e-310
-3.68608e-310
-2.51234e-310
-1.64577e-310
-1.0423e-310
-6.17831e-311
-3.15552e-311
1.86986e-311
5.87207e-311
7.93688e-311
7.6457e-311
7.46439e-311
5.69913e-311
3.86738e-311
3.15231e-311
2.84323e-311
2.11907e-311
8.95808e-312
-7.68949e-312
-1.8183e-311
-3.24304e-311
-6.12074e-311
-6.4866e-311
-5.7553e-311
-9.51853e-312
6.60229e-311
1.53158e-310
2.21116e-310
2.54555e-310
2.60875e-310
1.88164e-310
6.71043e-311
-1.05843e-310
-2.83797e-310
-4.13655e-310
-4.80177e-310
-4.9343e-310
-4.3089e-310
-3.06276e-310
-1.68226e-310
-1.73886e-311
1.06029e-310
1.82257e-310
2.19644e-310
2.37701e-310
2.30781e-310
2.02307e-310
1.81054e-310
1.62603e-310
1.17726e-310
7.17629e-311
5.94445e-311
1.90722e-311
-3.68167e-311
-6.17616e-311
-5.19563e-311
-6.45686e-307
-5.90799e-307
-5.45518e-307
-4.9899e-307
-4.4324e-307
-3.80054e-307
-3.15397e-307
-2.54654e-307
-2.01072e-307
-1.55889e-307
-1.19053e-307
-8.97454e-308
-6.68642e-308
-4.93325e-308
-3.60677e-308
-2.61783e-308
-1.88691e-308
-1.34919e-308
-9.59042e-309
-6.77656e-309
-4.74261e-309
-3.27753e-309
-2.25132e-309
-1.52363e-309
-1.03085e-309
-6.73474e-310
-4.3907e-310
-2.91202e-310
-1.95107e-310
-1.57036e-310
-1.17627e-310
-7.30574e-311
-4.50292e-311
-5.28867e-312
-3.45714e-312
1.02737e-311
2.87968e-311
3.61668e-311
4.87197e-311
7.37956e-311
6.6343e-311
3.50228e-311
8.20027e-312
1.24058e-311
5.30254e-312
-1.80146e-311
-4.96725e-311
-1.03459e-310
-1.35109e-310
-1.60817e-310
-1.53678e-310
-5.9636e-311
7.68193e-311
2.53536e-310
4.24051e-310
5.53299e-310
6.22161e-310
5.69545e-310
4.29001e-310
2.00753e-310
-2.98849e-311
-2.4753e-310
-4.1062e-310
-5.19821e-310
-5.42558e-310
-4.86046e-310
-3.61797e-310
-2.27714e-310
-9.93074e-311
-5.93836e-312
5.91266e-311
9.7731e-311
1.04873e-310
8.18447e-311
6.83467e-311
6.47745e-311
1.63054e-311
-2.33229e-312
4.12512e-312
2.40558e-311
-1.46811e-306
-1.34709e-306
-1.25588e-306
-1.16165e-306
-1.04149e-306
-8.9842e-307
-7.47587e-307
-6.03362e-307
-4.74899e-307
-3.6616e-307
-2.77461e-307
-2.07151e-307
-1.52674e-307
-1.11254e-307
-8.02625e-308
-5.73994e-308
-4.06988e-308
-2.86506e-308
-2.00062e-308
-1.38665e-308
-9.55803e-309
-6.55297e-309
-4.4318e-309
-2.98334e-309
-1.97793e-309
-1.28775e-309
-8.32275e-310
-5.28152e-310
-3.30216e-310
-2.25134e-310
-1.52855e-310
-1.05854e-310
-8.66963e-311
-7.05101e-311
-5.08425e-311
-5.0184e-311
-3.82403e-311
-3.63669e-311
-3.67357e-311
-3.4306e-311
-3.79689e-311
-4.45027e-311
-6.50656e-311
-4.7037e-311
-2.13936e-311
2.49885e-311
8.06551e-311
8.03562e-311
4.86538e-311
-7.88423e-311
-2.42161e-310
-3.94757e-310
-5.24046e-310
-5.6632e-310
-4.88088e-310
-2.9403e-310
-2.63123e-311
2.57169e-310
4.81587e-310
6.37107e-310
6.99457e-310
6.78857e-310
5.68222e-310
3.95819e-310
1.61401e-310
-4.25556e-311
-1.86224e-310
-2.50226e-310
-2.55721e-310
-1.89623e-310
-1.39633e-310
-1.06876e-310
-7.91154e-311
-5.76727e-311
-3.41554e-311
-2.7323e-311
-5.82511e-311
-6.38737e-311
-7.80101e-311
-1.05038e-310
-3.30069e-306
-3.03349e-306
-2.85149e-306
-2.6642e-306
-2.40952e-306
-2.0911e-306
-1.74533e-306
-1.40896e-306
-1.10638e-306
-8.48994e-307
-6.3888e-307
-4.7276e-307
-3.44723e-307
-2.48137e-307
-1.76556e-307
-1.2434e-307
-8.67511e-308
-6.0029e-308
-4.12091e-308
-2.80876e-308
-1.90031e-308
-1.27568e-308
-8.50703e-309
-5.66036e-309
-3.73757e-309
-2.44008e-309
-1.55471e-309
-9.93265e-310
-6.11143e-310
-3.66735e-310
-2.04437e-310
-1.11374e-310
-7.06099e-311
-4.43109e-311
-2.96785e-311
-3.17127e-311
-3.66429e-311
-3.61594e-311
-1.8698e-311
-3.34132e-311
-4.18044e-311
-6.39199e-311
-1.13136e-310
-1.60056e-310
-1.71473e-310
-1.4771e-310
-5.38291e-311
8.14057e-311
2.48061e-310
3.63725e-310
4.1634e-310
3.44251e-310
1.7732e-310
-1.21204e-310
-4.38293e-310
-7.32224e-310
-9.32395e-310
-1.01928e-309
-9.80149e-310
-8.10151e-310
-5.36681e-310
-1.92477e-310
1.23794e-310
3.61744e-310
4.86691e-310
4.97202e-310
4.05475e-310
2.83356e-310
1.74157e-310
1.02338e-310
5.59893e-311
1.97442e-311
-3.19397e-311
-4.87624e-311
-4.45126e-311
-8.43913e-311
-8.88673e-311
-1.06468e-310
-1.36618e-310
-1.26906e-310
-7.38354e-306
-6.79106e-306
-6.42752e-306
-6.05844e-306
-5.52224e-306
-4.81924e-306
-4.03449e-306
-3.25865e-306
-2.5541e-306
-1.95188e-306
-1.4597e-306
-1.07127e-306
-7.7326e-307
-5.50013e-307
-3.86122e-307
-2.67916e-307
-1.83934e-307
-1.25101e-307
-8.43584e-308
-5.64222e-308
-3.74695e-308
-2.46995e-308
-1.61644e-308
-1.05224e-308
-6.80803e-309
-4.39465e-309
-2.79398e-309
-1.78922e-309
-1.13926e-309
-7.07977e-310
-4.29191e-310
-2.34586e-310
-1.27238e-310
-5.7424e-311
-2.04597e-311
-7.61876e-312
4.7198e-312
6.01918e-312
3.42849e-311
4.90312e-311
8.68854e-311
6.66771e-311
3.34339e-311
-3.34056e-311
-1.46458e-310
-2.72101e-310
-3.66109e-310
-3.86076e-310
-3.03854e-310
-9.71133e-311
2.20515e-310
6.15522e-310
9.52316e-310
1.14895e-309
1.16393e-309
9.96303e-310
6.57168e-310
1.8672e-310
-3.32929e-310
-7.81065e-310
-1.1208e-309
-1.2482e-309
-1.17227e-309
-9.59667e-310
-6.30531e-310
-3.20918e-310
-9.33386e-311
6.34368e-311
1.56701e-310
1.83662e-310
1.52493e-310
9.30056e-311
3.51523e-311
9.41604e-312
-1.8782e-311
-5.06632e-311
-7.06769e-311
-1.04765e-310
-1.41089e-310
-1.4367e-310
-1.65001e-305
-1.51796e-305
-1.44484e-305
-1.37212e-305
-1.25913e-305
-1.10422e-305
-9.26929e-306
-7.49077e-306
-5.86193e-306
-4.46347e-306
-3.3192e-306
-2.41757e-306
-1.72867e-306
-1.21588e-306
-8.42668e-307
-5.76357e-307
-3.89556e-307
-2.60481e-307
-1.72513e-307
-1.13277e-307
-7.37948e-308
-4.7726e-308
-3.06342e-308
-1.95234e-308
-1.23532e-308
-7.7707e-309
-4.84358e-309
-3.01328e-309
-1.85732e-309
-1.15154e-309
-7.20035e-310
-4.27815e-310
-2.48351e-310
-1.54615e-310
-1.12287e-310
-7.62108e-311
-6.35886e-311
-4.29733e-311
6.43319e-312
3.00994e-311
9.43125e-311
1.59792e-310
2.08235e-310
2.43485e-310
2.26579e-310
1.57462e-310
-1.48896e-311
-2.81898e-310
-5.86497e-310
-8.41998e-310
-9.62715e-310
-8.3033e-310
-4.88516e-310
2.69581e-311
6.12952e-310
1.18401e-309
1.62282e-309
1.8356e-309
1.79224e-309
1.50589e-309
1.0311e-309
4.86821e-310
-2.64182e-311
-3.95783e-310
-6.1451e-310
-6.53098e-310
-5.62858e-310
-4.40167e-310
-2.95148e-310
-1.685e-310
-8.73385e-311
-4.63688e-311
-1.36513e-311
-4.3374e-311
-3.36107e-311
-6.46924e-311
-9.39713e-311
-9.63471e-311
-1.08662e-310
-1.13702e-310
-3.69265e-305
-3.39686e-305
-3.24806e-305
-3.10383e-305
-2.86437e-305
-2.52232e-305
-2.12224e-305
-1.7158e-305
-1.3408e-305
-1.01761e-305
-7.52891e-306
-5.44601e-306
-3.86053e-306
-2.68731e-306
-1.84021e-306
-1.24166e-306
-8.26699e-307
-5.43873e-307
-3.53973e-307
-2.28157e-307
-1.45821e-307
-9.24755e-308
-5.82108e-308
-3.63979e-308
-2.25872e-308
-1.39043e-308
-8.46481e-309
-5.11347e-309
-3.05417e-309
-1.80571e-309
-1.07843e-309
-6.2827e-310
-3.73215e-310
-2.2198e-310
-1.65832e-310
-1.42402e-310
-1.41247e-310
-1.1485e-310
-9.29918e-311
-7.84549e-311
-5.28345e-311
-3.57372e-312
6.00044e-311
1.86444e-310
3.53357e-310
5.19708e-310
6.52278e-310
6.7506e-310
4.9935e-310
1.04202e-310
-4.20418e-310
-9.51621e-310
-1.39478e-309
-1.61778e-309
-1.5676e-309
-1.24877e-309
-7.29639e-310
-7.86491e-311
5.73985e-310
1.14739e-309
1.53231e-309
1.64826e-309
1.54986e-309
1.30158e-309
9.51121e-310
6.27788e-310
3.28396e-310
1.29622e-310
5.34557e-312
-6.76585e-311
-9.80968e-311
-9.69827e-311
-7.30832e-311
-4.27688e-311
-4.05303e-311
-5.99887e-311
-8.13525e-311
-9.10958e-311
-6.9167e-311
-4.53146e-311
-8.28662e-305
-7.62097e-305
-7.3137e-305
-7.02432e-305
-6.51229e-305
-5.75396e-305
-4.85034e-305
-3.92262e-305
-3.06134e-305
-2.31665e-305
-1.70621e-305
-1.22656e-305
-8.62684e-306
-5.94864e-306
-4.02886e-306
-2.68457e-306
-1.76266e-306
-1.14207e-306
-7.3114e-307
-4.63041e-307
-2.90444e-307
-1.80634e-307
-1.11471e-307
-6.83092e-308
-4.1579e-308
-2.51175e-308
-1.50384e-308
-8.93927e-309
-5.24052e-309
-3.03219e-309
-1.74345e-309
-9.57742e-310
-5.27271e-310
-2.8697e-310
-1.74046e-310
-1.31494e-310
-9.76944e-311
-8.06016e-311
-7.24545e-311
-6.87333e-311
-9.95121e-311
-1.43223e-310
-2.0068e-310
-2.35232e-310
-1.92139e-310
-5.0329e-311
2.41466e-310
6.03679e-310
9.52529e-310
1.17154e-309
1.19193e-309
9.59953e-310
5.2639e-310
-6.9693e-311
-6.84466e-310
-1.2085e-309
-1.59575e-309
-1.79048e-309
-1.70623e-309
-1.40005e-309
-9.11263e-310
-3.66614e-310
1.65477e-310
5.90354e-310
8.36838e-310
9.1594e-310
8.38264e-310
7.25086e-310
5.71606e-310
4.28672e-310
2.94237e-310
1.99769e-310
1.34373e-310
8.50481e-311
8.84619e-311
6.88284e-311
6.15229e-312
-3.28612e-311
-3.38786e-311
-4.67751e-311
-1.86557e-304
-1.71517e-304
-1.65071e-304
-1.59176e-304
-1.48115e-304
-1.31217e-304
-1.10772e-304
-8.95982e-305
-6.98418e-305
-5.27158e-305
-3.86693e-305
-2.76462e-305
-1.93095e-305
-1.32028e-305
-8.8537e-306
-5.83307e-306
-3.78163e-306
-2.41615e-306
-1.52346e-306
-9.49199e-307
-5.85074e-307
-3.57197e-307
-2.16203e-307
-1.29863e-307
-7.74541e-308
-4.58896e-308
-2.70013e-308
-1.5803e-308
-9.16032e-309
-5.25395e-309
-2.99173e-309
-1.67866e-309
-9.3016e-310
-4.7673e-310
-2.51756e-310
-1.42476e-310
-8.48036e-311
-5.37123e-311
-2.79082e-311
4.03338e-311
7.44278e-311
5.44376e-311
-6.69912e-312
-1.49158e-310
-3.62321e-310
-5.46298e-310
-6.60695e-310
-5.94951e-310
-3.7071e-310
3.92858e-311
5.37572e-310
1.03411e-309
1.42728e-309
1.61819e-309
1.59003e-309
1.3312e-309
8.79344e-310
3.27721e-310
-2.64119e-310
-7.98659e-310
-1.17637e-309
-1.31455e-309
-1.2113e-309
-9.46487e-310
-6.32181e-310
-2.98532e-310
-4.49942e-311
1.37796e-310
2.27173e-310
2.75178e-310
2.65972e-310
2.62196e-310
2.12083e-310
1.86472e-310
1.63237e-310
1.19808e-310
5.19101e-311
-2.83093e-312
-2.59786e-311
-5.4718e-311
-4.21331e-304
-3.87244e-304
-3.73503e-304
-3.61288e-304
-3.37142e-304
-2.99297e-304
-2.52937e-304
-2.04595e-304
-1.59308e-304
-1.19971e-304
-8.76952e-305
-6.23969e-305
-4.33159e-305
-2.93978e-305
-1.95421e-305
-1.27461e-305
-8.17026e-306
-5.15493e-306
-3.20597e-306
-1.96802e-306
-1.19392e-306
-7.16642e-307
-4.26073e-307
-2.51141e-307
-1.4689e-307
-8.53401e-308
-4.92526e-308
-2.82711e-308
-1.61368e-308
-9.14983e-309
-5.14082e-309
-2.84185e-309
-1.56174e-309
-8.3064e-310
-4.47081e-310
-2.56445e-310
-1.73746e-310
-1.48058e-310
-1.28251e-310
-7.36079e-311
2.25896e-311
1.52163e-310
2.82553e-310
3.39449e-310
2.6588e-310
8.12246e-311
-2.37117e-310
-6.13852e-310
-9.68794e-310
-1.18224e-309
-1.22759e-309
-1.00689e-309
-6.2838e-310
-1.22795e-310
4.38087e-310
9.80863e-310
1.3968e-309
1.61522e-309
1.59603e-309
1.36112e-309
9.51463e-310
4.81772e-310
6.91081e-311
-2.19802e-310
-4.16925e-310
-4.63728e-310
-4.10086e-310
-2.90553e-310
-1.93801e-310
-1.02535e-310
-1.86835e-311
5.51303e-311
5.6001e-311
6.87799e-311
4.18869e-311
1.66612e-311
-1.16086e-311
-7.1888e-311
-1.17323e-310
-1.47009e-310
-9.54283e-304
-8.7683e-304
-8.47107e-304
-8.21347e-304
-7.68121e-304
-6.82962e-304
-5.77627e-304
-4.67198e-304
-3.63423e-304
-2.73144e-304
-1.99058e-304
-1.41052e-304
-9.74046e-305
-6.56837e-305
-4.33328e-305
-2.80164e-305
-1.77811e-305
-1.10952e-305
-6.81684e-306
-4.12951e-306
-2.46972e-306
-1.46002e-306
-8.5412e-307
-4.94955e-307
-2.84412e-307
-1.622e-307
-9.18749e-308
-5.17352e-308
-2.89634e-308
-1.61182e-308
-8.90273e-309
-4.88031e-309
-2.63818e-309
-1.41341e-309
-7.40161e-310
-3.95972e-310
-2.47777e-310
-2.08128e-310
-2.4617e-310
-2.94278e-310
-2.96159e-310
-2.33307e-310
-1.06723e-310
9.65617e-311
3.46223e-310
5.57871e-310
6.4574e-310
5.46153e-310
2.79118e-310
-1.65353e-310
-6.96552e-310
-1.17029e-309
-1.53343e-309
-1.70844e-309
-1.69643e-309
-1.46276e-309
-1.05331e-309
-5.49099e-310
-1.21759e-311
4.55693e-310
7.82878e-310
9.2348e-310
9.15141e-310
7.60797e-310
5.40237e-310
3.41671e-310
1.56463e-310
6.88352e-311
3.12195e-312
-3.13466e-311
-3.24822e-311
-3.63105e-311
-3.57875e-311
-2.84058e-311
-4.58745e-311
-7.22967e-311
-9.73554e-311
-1.35459e-310
-1.65758e-310
-1.97992e-310
-2.16662e-303
-1.99029e-303
-1.92516e-303
-1.86992e-303
-1.75158e-303
-1.55917e-303
-1.31941e-303
-1.06702e-303
-8.29278e-304
-6.22219e-304
-4.52289e-304
-3.19373e-304
-2.19564e-304
-1.47254e-304
-9.65185e-305
-6.19359e-305
-3.89745e-305
-2.40882e-305
-1.46439e-305
-8.76907e-306
-5.17919e-306
-3.02085e-306
-1.74205e-306
-9.94325e-307
-5.62306e-307
-3.15367e-307
-1.75572e-307
-9.7101e-308
-5.34097e-308
-2.92097e-308
-1.58886e-308
-8.57897e-309
-4.59973e-309
-2.42986e-309
-1.25167e-309
-6.15818e-310
-2.83036e-310
-1.35185e-310
-1.11134e-310
-1.65367e-310
-2.70756e-310
-3.97642e-310
-5.21867e-310
-5.68743e-310
-4.51319e-310
-1.82067e-310
1.59739e-310
5.32464e-310
8.49954e-310
9.80002e-310
8.90056e-310
6.32485e-310
2.22098e-310
-2.80616e-310
-8.00532e-310
-1.24657e-309
-1.58358e-309
-1.73451e-309
-1.68594e-309
-1.45755e-309
-1.12013e-309
-7.5767e-310
-3.95619e-310
-1.1819e-310
5.74567e-311
1.44144e-310
1.54521e-310
1.3924e-310
8.62654e-311
3.97537e-311
-1.44773e-311
-3.06237e-311
-4.21324e-311
-4.30473e-311
-7.42996e-311
-5.73536e-311
-8.19877e-311
-1.14022e-310
-1.2936e-310
-1.77939e-310
-4.92876e-303
-4.5268e-303
-4.38251e-303
-4.26224e-303
-3.9972e-303
-3.56105e-303
-3.01453e-303
-2.43743e-303
-1.89287e-303
-1.4182e-303
-1.02867e-303
-7.24247e-304
-4.96053e-304
-3.31165e-304
-2.15884e-304
-1.37657e-304
-8.59997e-305
-5.27221e-305
-3.17638e-305
-1.88335e-305
-1.10044e-305
-6.34424e-306
-3.61319e-306
-2.03509e-306
-1.13481e-306
-6.27091e-307
-3.4376e-307
-1.87101e-307
-1.01196e-307
-5.44267e-308
-2.91359e-308
-1.55316e-308
-8.23376e-309
-4.33946e-309
-2.27236e-309
-1.12703e-309
-4.98894e-310
-1.82503e-310
6.31052e-312
8.62216e-311
8.16248e-311
-4.35007e-313
-1.90944e-310
-4.45566e-310
-7.11195e-310
-8.6399e-310
-8.95706e-310
-7.08741e-310
-3.4666e-310
1.1057e-310
5.4576e-310
8.90613e-310
1.10738e-309
1.12312e-309
9.62099e-310
6.8203e-310
2.96583e-310
-1.73054e-310
-5.72763e-310
-8.88862e-310
-1.10247e-309
-1.16256e-309
-1.10165e-309
-9.39056e-310
-7.54688e-310
-5.84022e-310
-3.97718e-310
-2.76913e-310
-1.93313e-310
-1.69641e-310
-1.43419e-310
-1.23688e-310
-9.16314e-311
-7.84685e-311
-7.63169e-311
-6.74231e-311
-7.32566e-311
-5.11092e-311
-8.25048e-311
-9.93084e-311
-1.12294e-302
-1.03121e-302
-9.98965e-303
-9.72442e-303
-9.12737e-303
-8.1361e-303
-6.88889e-303
-5.56895e-303
-4.3218e-303
-3.23413e-303
-2.34163e-303
-1.64467e-303
-1.123e-303
-7.46877e-304
-4.84686e-304
-3.07434e-304
-1.90911e-304
-1.16245e-304
-6.95074e-305
-4.08707e-305
-2.36646e-305
-1.35094e-305
-7.61279e-306
-4.23945e-306
-2.33561e-306
-1.27427e-306
-6.89158e-307
-3.69806e-307
-1.97061e-307
-1.04385e-307
-5.50127e-308
-2.88849e-308
-1.50938e-308
-7.84512e-309
-4.06839e-309
-2.09504e-309
-1.05574e-309
-5.29253e-310
-2.27424e-310
-2.92771e-312
1.87787e-310
3.45751e-310
3.94416e-310
2.78421e-310
2.71853e-311
-3.27394e-310
-6.9823e-310
-9.95921e-310
-1.14132e-309
-1.07768e-309
-8.58679e-310
-5.06137e-310
-1.03929e-310
2.77416e-310
5.80219e-310
8.05975e-310
8.91257e-310
8.43345e-310
7.05934e-310
4.65168e-310
1.99433e-310
-8.49633e-311
-3.03356e-310
-4.59268e-310
-5.35033e-310
-5.48369e-310
-4.67872e-310
-3.63828e-310
-2.89567e-310
-2.09659e-310
-1.70395e-310
-1.18211e-310
-8.63555e-311
-4.6548e-311
-8.35113e-312
8.22864e-312
1.64327e-311
1.77396e-311
-2.60556e-312
1.70491e-312
-2.56139e-302
-2.35193e-302
-2.27935e-302
-2.22024e-302
-2.08513e-302
-1.85938e-302
-1.57453e-302
-1.27257e-302
-9.87007e-303
-7.37864e-303
-5.33456e-303
-3.73939e-303
-2.54686e-303
-1.6886e-303
-1.09176e-303
-6.89511e-304
-4.26054e-304
-2.57973e-304
-1.53291e-304
-8.95156e-305
-5.14405e-305
-2.9126e-305
-1.62683e-305
-8.97392e-306
-4.89401e-306
-2.6414e-306
-1.41227e-306
-7.48718e-307
-3.93951e-307
-2.05921e-307
-1.07016e-307
-5.53341e-308
-2.84616e-308
-1.45651e-308
-7.42992e-309
-3.79048e-309
-1.94231e-309
-1.02184e-309
-5.81929e-310
-3.30696e-310
-1.3335e-310
1.03518e-310
3.48679e-310
5.19582e-310
5.90191e-310
5.35914e-310
3.29634e-310
1.18161e-311
-3.53716e-310
-6.48282e-310
-8.91501e-310
-9.63785e-310
-9.31915e-310
-7.76671e-310
-5.8634e-310
-3.35688e-310
-1.46684e-310
4.56993e-311
2.23656e-310
3.30706e-310
3.54247e-310
2.7786e-310
1.79471e-310
5.65068e-311
-8.06631e-311
-1.53459e-310
-1.76306e-310
-1.64373e-310
-1.41863e-310
-1.20452e-310
-7.71354e-311
-9.5608e-312
9.25335e-312
4.65993e-311
6.2464e-311
7.10407e-311
6.03937e-311
7.39619e-311
6.7192e-311
3.5889e-311
-5.84741e-302
-5.36883e-302
-5.20463e-302
-5.0718e-302
-4.76498e-302
-4.25013e-302
-3.59916e-302
-2.90832e-302
-2.25457e-302
-1.68408e-302
-1.21609e-302
-8.51082e-303
-5.7848e-303
-3.82578e-303
-2.46615e-303
-1.55205e-303
-9.55166e-304
-5.75713e-304
-3.40353e-304
-1.97634e-304
-1.1287e-304
-6.34789e-305
-3.5199e-305
-1.92651e-305
-1.04187e-305
-5.57319e-306
-2.95164e-306
-1.54915e-306
-8.06499e-307
-4.16865e-307
-2.141e-307
-1.09364e-307
-5.55772e-308
-2.8088e-308
-1.40917e-308
-7.01809e-309
-3.46437e-309
-1.7068e-309
-8.94444e-310
-5.17349e-310
-3.50481e-310
-2.05615e-310
-3.95788e-311
1.46388e-310
3.64399e-310
6.0451e-310
7.49017e-310
7.71735e-310
6.9604e-310
5.35231e-310
2.82683e-310
4.55822e-311
-1.77482e-310
-3.44611e-310
-4.58345e-310
-4.80789e-310
-4.93499e-310
-4.48775e-310
-3.71546e-310
-2.72167e-310
-1.65809e-310
-9.04501e-311
-3.86878e-311
-3.61826e-311
-4.27818e-311
-5.29574e-311
-7.35746e-311
-6.56337e-311
-3.49977e-311
-1.70612e-311
2.60364e-311
5.03946e-311
9.75917e-311
1.02903e-310
1.11538e-310
1.34386e-310
1.66362e-310
2.10811e-310
2.26376e-310
1.94155e-310
-1.3357e-301
-1.22633e-301
-1.18903e-301
-1.159e-301
-1.08915e-301
-9.716e-302
-8.22778e-302
-6.6472e-302
-5.15085e-302
-3.84489e-302
-2.77375e-302
-1.93872e-302
-1.3156e-302
-8.68325e-303
-5.58389e-303
-3.5043e-303
-2.14964e-303
-1.29091e-303
-7.60031e-304
-4.3932e-304
-2.49645e-304
-1.39638e-304
-7.69731e-305
-4.18619e-305
-2.24856e-305
-1.19409e-305
-6.27528e-306
-3.26661e-306
-1.68587e-306
-8.63412e-307
-4.39194e-307
-2.22061e-307
-1.11696e-307
-5.5898e-308
-2.78224e-308
-1.3731e-308
-6.69497e-309
-3.21406e-309
-1.50733e-309
-7.17904e-310
-3.59846e-310
-2.16738e-310
-1.5979e-310
-1.04527e-310
-1.75015e-311
1.27978e-310
3.36191e-310
5.58778e-310
7.8238e-310
9.22442e-310
9.67035e-310
9.34286e-310
8.38746e-310
6.86963e-310
5.20933e-310
3.7895e-310
2.26886e-310
8.8081e-311
-1.01111e-311
-7.53941e-311
-9.95362e-311
-8.9564e-311
-4.49669e-311
-2.29392e-311
-2.11056e-311
9.62295e-312
3.09267e-311
7.66573e-311
7.76761e-311
7.80854e-311
9.42578e-311
9.74758e-311
1.32704e-310
1.48996e-310
1.34214e-310
1.79647e-310
2.22491e-310
2.45722e-310
2.92729e-310
3.14867e-310
-3.05235e-301
-2.80232e-301
-2.71738e-301
-2.64915e-301
-2.48983e-301
-2.22127e-301
-1.88096e-301
-1.51935e-301
-1.17692e-301
-8.7804e-302
-6.32941e-302
-4.41945e-302
-2.99511e-302
-1.97369e-302
-1.26679e-302
-7.93227e-303
-4.85336e-303
-2.90603e-303
-1.70533e-303
-9.82145e-304
-5.55874e-304
-3.09569e-304
-1.69838e-304
-9.18964e-305
-4.90917e-305
-2.59181e-305
-1.35363e-305
-7.00006e-306
-3.58749e-306
-1.82369e-306
-9.20349e-307
-4.61477e-307
-2.30114e-307
-1.14208e-307
-5.64259e-308
-2.77478e-308
-1.35452e-308
-6.52325e-309
-3.07151e-309
-1.36987e-309
-5.45948e-310
-1.4881e-310
1.37797e-311
3.97289e-311
-1.21855e-311
-7.21881e-311
-7.08197e-311
1.3131e-311
1.87167e-310
4.09676e-310
6.25022e-310
8.15768e-310
9.64946e-310
1.01988e-309
1.0297e-309
9.84061e-310
8.9254e-310
7.46898e-310
6.22753e-310
4.96651e-310
4.01987e-310
3.33037e-310
2.64424e-310
1.96646e-310
1.37488e-310
1.21443e-310
1.22559e-310
1.13323e-310
9.44519e-311
9.82217e-311
1.31105e-310
1.55437e-310
1.55193e-310
1.59345e-310
1.90641e-310
1.99464e-310
2.22685e-310
2.44238e-310
2.56271e-310
2.80048e-310
-6.97705e-301
-6.40546e-301
-6.21161e-301
-6.05611e-301
-5.69227e-301
-5.07837e-301
-4.30009e-301
-3.47285e-301
-2.68937e-301
-2.00553e-301
-1.44482e-301
-1.00802e-301
-6.8245e-302
-4.49154e-302
-2.87852e-302
-1.79928e-302
-1.09865e-302
-6.56322e-303
-3.84149e-303
-2.20604e-303
-1.24462e-303
-6.90732e-304
-3.77533e-304
-2.0345e-304
-1.08213e-304
-5.68667e-305
-2.95537e-305
-1.52033e-305
-7.74853e-306
-3.91584e-306
-1.96385e-306
-9.78201e-307
-4.84322e-307
-2.38562e-307
-1.16982e-307
-5.71672e-308
-2.78579e-308
-1.35189e-308
-6.51433e-309
-3.0704e-309
-1.33901e-309
-4.57225e-310
-1.50502e-311
1.92345e-310
2.33407e-310
1.72253e-310
4.84775e-311
-6.82706e-311
-1.30702e-310
-1.03811e-310
1.29253e-311
1.93813e-310
3.98634e-310
5.77221e-310
7.6107e-310
8.84795e-310
9.35569e-310
9.19215e-310
8.66228e-310
7.93089e-310
7.24806e-310
6.44479e-310
5.52917e-310
4.74774e-310
3.82725e-310
3.05446e-310
2.36471e-310
1.70274e-310
9.59282e-311
7.31118e-311
3.08004e-311
5.08334e-311
8.91993e-311
1.32623e-310
1.76751e-310
1.72027e-310
1.64822e-310
1.8145e-310
2.05943e-310
2.2583e-310
-1.59506e-300
-1.46438e-300
-1.42008e-300
-1.38457e-300
-1.3014e-300
-1.16104e-300
-9.83036e-301
-7.93812e-301
-6.14583e-301
-4.5815e-301
-3.29902e-301
-2.30021e-301
-1.55606e-301
-1.02312e-301
-6.54933e-302
-4.08819e-302
-2.49233e-302
-1.48621e-302
-8.68121e-303
-4.9741e-303
-2.79934e-303
-1.54934e-303
-8.44324e-304
-4.53551e-304
-2.40416e-304
-1.2588e-304
-6.51663e-305
-3.33858e-305
-1.69415e-305
-8.52237e-306
-4.25344e-306
-2.10783e-306
-1.03796e-306
-5.08281e-307
-2.47713e-307
-1.20268e-307
-5.82166e-308
-2.8144e-308
-1.36052e-308
-6.56125e-309
-3.13149e-309
-1.41993e-309
-5.01372e-310
-4.29559e-312
2.72349e-310
3.86861e-310
3.74342e-310
2.72558e-310
1.19554e-310
-9.76183e-312
-1.15922e-310
-1.28717e-310
-6.67311e-311
5.55553e-311
2.41613e-310
4.18041e-310
5.51223e-310
6.26866e-310
6.75139e-310
7.08198e-310
7.21775e-310
6.86351e-310
6.28875e-310
5.75324e-310
5.1696e-310
4.46688e-310
3.75255e-310
3.08783e-310
2.25209e-310
1.49905e-310
8.6149e-311
5.135e-311
6.44326e-311
9.68116e-311
1.06322e-310
9.46678e-311
1.02568e-310
9.95916e-311
1.30882e-310
1.40334e-310
-3.64685e-300
-3.34808e-300
-3.24677e-300
-3.16553e-300
-2.97534e-300
-2.65434e-300
-2.24724e-300
-1.81445e-300
-1.40451e-300
-1.04673e-300
-7.53441e-301
-5.25076e-301
-3.54989e-301
-2.33234e-301
-1.49167e-301
-9.30142e-302
-5.66363e-302
-3.37259e-302
-1.9669e-302
-1.12501e-302
-6.31914e-303
-3.49005e-303
-1.89756e-303
-1.01679e-303
-5.37541e-304
-2.80652e-304
-1.4485e-304
-7.39713e-305
-3.74094e-305
-1.87515e-305
-9.32356e-306
-4.60214e-306
-2.25687e-306
-1.10039e-306
-5.33803e-307
-2.57832e-307
-1.24106e-307
-5.96028e-308
-2.8592e-308
-1.37521e-308
-6.67693e-309
-3.29003e-309
-1.60292e-309
-6.96609e-310
-1.5725e-310
1.60429e-310
3.59564e-310
4.22992e-310
4.00038e-310
2.94114e-310
1.42065e-310
1.93555e-311
-9.42459e-311
-1.43604e-310
-1.06188e-310
-1.27035e-311
9.05236e-311
2.25702e-310
3.35272e-310
4.33066e-310
4.61619e-310
4.44433e-310
4.32353e-310
3.94675e-310
3.35113e-310
3.08041e-310
2.69467e-310
2.23852e-310
1.86746e-310
1.38888e-310
1.10226e-310
1.01724e-310
1.14876e-310
1.25026e-310
8.38426e-311
4.6721e-311
3.00374e-311
2.04114e-311
1.6625e-311