/*--------------------------------*- C++ -*----------------------------------*\
  =========                 |
  \\      /  F ield         | OpenFOAM: The Open Source CFD Toolbox
   \\    /   O peration     | Website:  https://openfoam.org
    \\  /    A nd           | Version:  11
     \\/     M anipulation  |
\*---------------------------------------------------------------------------*/
FoamFile
{
    format      ascii;
    class       volScalarField;
    location    "5";
    object      C;
}
// * * * * * * * * * * * * * * * * * * * * * * * * * * * * * * * * * * * * * //

dimensions      [0 0 0 1 0 0 0];

internalField   nonuniform List<scalar> 
427520
(
-1.03838e-311
-1.374e-311
-8.89036e-312
-3.32024e-312
-1.94585e-312
-1.69152e-312
-1.17861e-312
2.02364e-312
-1.21914e-312
-2.61742e-314
2.46804e-312
5.44442e-312
5.09479e-312
1.90315e-312
2.79974e-312
-5.18847e-313
1.47437e-313
-1.20836e-312
-7.56547e-313
-2.30575e-312
-1.76475e-312
-1.66591e-312
-1.68451e-312
-2.18298e-312
-1.64608e-313
-2.06147e-312
-8.26736e-314
1.82371e-313
1.09442e-312
2.23799e-312
2.57042e-312
3.54986e-313
7.11672e-313
-1.62769e-312
3.22489e-312
1.02047e-312
1.15787e-313
-1.80629e-312
-2.48602e-312
-1.28899e-312
-3.1628e-312
6.90707e-313
-2.68375e-312
5.32611e-314
9.14531e-313
6.23125e-313
9.15851e-313
7.36861e-314
-1.43794e-312
1.18908e-312
-1.37928e-312
-5.54659e-313
1.24332e-313
2.958e-314
3.79857e-313
1.30979e-312
-6.25829e-313
2.65679e-312
3.51121e-312
5.98664e-313
8.36466e-313
1.44797e-312
2.21211e-312
4.1236e-312
5.10925e-313
1.34836e-312
-7.07103e-313
-4.37522e-312
-7.11764e-312
-2.07814e-312
-3.26011e-312
-1.75007e-312
-2.26235e-312
5.12007e-313
-3.32949e-313
-4.61178e-312
-3.55705e-312
1.58366e-312
-9.87468e-313
-5.04038e-312
-1.72433e-311
-1.0129e-311
-8.75202e-312
4.18498e-312
9.35079e-312
-5.91739e-312
-5.47442e-312
-5.56947e-312
-4.05406e-312
-2.35125e-312
-1.13061e-312
1.78055e-312
2.89039e-312
9.04983e-313
1.98765e-312
-8.69831e-313
2.4828e-313
5.45399e-313
-5.2487e-313
-3.05565e-312
-3.09867e-312
-2.20082e-312
4.15502e-313
-1.29469e-313
2.813e-312
2.83933e-313
-8.93375e-313
-1.01742e-312
-2.71947e-312
-6.81921e-313
-3.52629e-312
-1.78679e-312
-2.90422e-312
-8.84504e-313
3.40942e-313
2.1273e-312
-6.0541e-313
5.09301e-313
8.2525e-313
-6.58562e-313
-1.60964e-312
-7.48337e-313
-5.00516e-313
-1.17914e-312
1.80792e-312
-1.1967e-313
-5.9197e-313
1.42894e-312
-1.37155e-312
1.30524e-312
-5.9456e-313
-2.19326e-312
-2.09204e-313
4.82887e-313
-5.92728e-313
-4.73571e-314
6.10115e-313
5.71722e-313
1.20525e-312
9.95567e-313
-5.91808e-313
2.08889e-312
1.36165e-313
3.93265e-312
-2.52511e-313
2.60254e-312
-5.51332e-313
-5.16588e-312
-2.23279e-312
-1.63408e-312
-3.20178e-312
-1.44512e-312
3.21733e-312
6.87729e-312
9.54274e-313
-1.35594e-313
-9.83659e-312
-6.9296e-312
-8.48219e-312
-1.24811e-311
-5.52333e-312
-1.10569e-311
-6.68939e-314
9.39969e-313
2.70967e-312
-1.93047e-312
1.49258e-312
2.14416e-312
-2.89527e-312
1.30871e-312
3.44724e-312
6.81274e-312
7.14019e-312
5.91776e-312
1.75683e-312
7.05857e-314
-2.04138e-312
-1.31199e-312
-4.79363e-313
-3.16081e-312
-4.42761e-312
-2.24592e-312
-9.93453e-313
-2.21947e-312
-8.02637e-314
1.36718e-312
-1.8037e-312
-1.35487e-312
-1.6942e-312
-2.89998e-312
-5.64854e-312
-2.24884e-312
-3.64294e-312
-2.35133e-312
-2.97055e-312
2.66377e-312
-2.98283e-312
-1.40854e-312
5.38928e-313
-3.93358e-312
-1.12654e-312
-2.54148e-312
2.93064e-313
-1.26069e-313
2.73241e-312
-5.3826e-313
5.88134e-313
6.2223e-313
1.38875e-313
-5.99025e-313
-3.7122e-312
-4.82872e-313
1.48527e-313
1.37674e-312
1.91153e-312
-1.62321e-312
-1.19232e-312
-3.19893e-312
-8.12663e-313
-6.95282e-313
-1.76613e-312
-7.86844e-314
-3.94296e-312
-6.22715e-312
-3.81676e-312
-3.12107e-312
-4.30804e-312
-4.81847e-312
-7.65449e-313
-6.42035e-313
-4.6725e-312
-1.66494e-312
-2.50678e-312
-2.48411e-313
-2.49325e-312
-9.50885e-312
-1.69656e-311
-1.01523e-311
-6.85007e-312
-8.34892e-312
-1.64856e-311
-1.74874e-311
-1.5275e-311
-7.30856e-312
-1.21394e-311
-2.7179e-312
3.5708e-312
4.91345e-312
2.99771e-312
-7.42376e-313
3.06619e-312
4.93602e-312
6.05181e-312
5.70968e-312
8.348e-313
1.35676e-312
6.68096e-313
-4.62676e-312
3.47781e-313
-4.89743e-313
-1.73808e-312
-8.74959e-313
-3.6426e-312
-2.35861e-312
1.26411e-312
4.93226e-312
-1.15155e-312
6.34604e-313
-3.08502e-312
-3.3936e-312
-3.45707e-312
-2.71912e-312
-4.78031e-312
-2.80073e-312
-3.77943e-312
2.21666e-312
-4.62016e-312
-2.8013e-312
1.03247e-312
-2.34361e-312
-7.59277e-314
-1.53983e-312
6.11173e-313
6.48837e-313
1.78664e-312
6.34601e-313
3.8884e-313
1.67806e-312
3.10948e-312
1.19844e-312
-3.87809e-313
1.66422e-312
1.60839e-312
1.35362e-313
6.99682e-313
-7.48931e-313
-1.06749e-312
-1.44055e-312
-5.39128e-313
3.79583e-313
-3.3337e-312
-1.12581e-313
1.05979e-312
-5.86963e-312
-4.13494e-312
-5.82912e-312
-8.42524e-312
-4.42725e-312
-1.66524e-312
1.76244e-312
6.82953e-313
-7.4048e-312
-6.08182e-312
-8.70158e-312
-3.07883e-312
-6.677e-312
-7.48758e-312
-8.08366e-312
-7.47304e-312
-7.27036e-314
-1.28694e-311
-1.78608e-311
-1.74487e-311
-1.57722e-311
-1.71224e-311
-1.21185e-311
-3.99182e-312
4.44902e-313
-3.42434e-312
5.89299e-313
2.20401e-312
5.00647e-312
4.10437e-312
2.38118e-313
-2.74666e-312
5.37111e-313
7.28241e-313
1.38642e-312
-1.26288e-312
6.96734e-313
-3.68716e-314
1.56574e-312
-2.02421e-312
8.06123e-313
3.16902e-312
1.79061e-312
2.73802e-312
1.9024e-312
-3.63728e-312
-3.70581e-312
-2.83376e-312
-3.14916e-312
-5.30858e-312
-3.94339e-312
-1.66292e-312
3.42852e-312
-4.94879e-312
-4.13511e-314
-6.94329e-314
-1.02082e-312
-4.08615e-312
-6.63621e-313
1.03738e-312
-4.74181e-313
1.49641e-312
5.25704e-315
1.25936e-312
1.63958e-312
3.48527e-312
4.32528e-312
5.73977e-313
-1.5922e-312
-6.72994e-313
-2.09848e-312
-5.47496e-313
-1.41268e-312
-2.26659e-312
4.38296e-313
-1.5005e-313
-1.15641e-312
-7.36533e-312
-6.20293e-312
1.36264e-313
-4.83044e-312
-2.23601e-312
-2.8062e-312
-2.80935e-312
-5.58921e-313
-7.71226e-313
3.34731e-312
2.59974e-312
-5.56184e-312
-1.17271e-311
-5.61085e-312
-1.87635e-312
-4.19106e-312
-7.95645e-312
-9.99615e-312
-4.09938e-312
-5.575e-312
8.35492e-312
-4.96372e-312
-4.34026e-312
-1.75124e-311
-1.7244e-311
-9.80521e-312
4.89692e-313
9.65351e-312
-5.8613e-313
3.54864e-312
2.9549e-312
2.95127e-312
2.69052e-312
-2.32105e-313
-2.67136e-313
4.11869e-313
1.93895e-312
5.73808e-312
2.35043e-312
4.10511e-312
5.13547e-312
5.93712e-312
-2.7117e-313
3.13346e-312
2.71793e-312
-1.57222e-312
1.44837e-312
2.43987e-313
2.80431e-313
-2.31812e-312
-1.52668e-312
-2.48014e-312
-5.47028e-312
-2.1679e-312
-7.00116e-313
1.73395e-312
-4.46393e-312
8.25308e-313
-1.63779e-312
-3.46035e-312
-3.52942e-312
1.80293e-312
1.98776e-312
4.46472e-312
2.15416e-312
-8.50046e-313
4.44946e-313
1.12039e-312
1.29546e-312
5.7003e-313
-4.8179e-312
-3.1183e-312
-4.08237e-312
-8.51353e-313
-2.26069e-312
-1.2391e-312
-6.86346e-312
-3.88105e-312
-4.5549e-312
-2.29524e-312
-5.80041e-312
-6.95147e-312
-1.05111e-312
1.20307e-313
3.94884e-312
2.49767e-312
4.2027e-312
1.28984e-312
5.14572e-312
2.54971e-312
5.57801e-312
-7.43429e-313
-7.20403e-313
-1.92261e-312
-2.83139e-312
-2.61438e-312
-5.19072e-312
-2.09159e-312
2.32208e-312
1.00701e-311
1.82409e-311
-2.10026e-312
-3.98077e-312
-9.7895e-312
-1.48184e-311
-4.7303e-312
3.86966e-312
9.76726e-312
4.02442e-312
-2.43931e-312
-3.91646e-313
-1.26907e-312
-4.8997e-313
-3.15589e-312
-1.05228e-312
-3.73444e-312
-2.93337e-312
6.19038e-312
1.46451e-312
4.25349e-312
5.30548e-312
5.45081e-312
1.82114e-312
3.70444e-312
9.1727e-313
-2.59716e-313
-3.09182e-312
-1.33594e-312
1.79721e-312
-2.27045e-312
8.37336e-313
-5.07907e-313
-5.61433e-312
-6.84255e-313
-1.55729e-312
-7.28094e-314
-4.22262e-312
2.4477e-313
-2.21312e-312
-6.49667e-312
-3.54977e-312
5.7548e-314
2.00819e-312
5.78611e-312
4.15715e-312
-1.03203e-312
-1.79602e-312
-1.0802e-312
-2.72714e-312
-1.57437e-312
-6.59431e-312
-1.00146e-312
-5.5904e-312
-6.45122e-313
-3.68437e-312
-4.42345e-312
-9.31785e-312
-8.44938e-312
-6.43755e-312
-2.85745e-312
-1.56591e-312
-4.14267e-312
1.27944e-312
-1.48887e-312
2.14618e-312
1.80284e-312
-9.71527e-313
-6.25418e-313
4.49555e-312
1.02141e-312
3.04476e-312
-3.36212e-312
-2.65818e-312
-5.55927e-312
-5.13484e-312
2.46197e-313
-4.63155e-312
2.73078e-312
1.08237e-312
-9.04425e-312
1.09967e-311
7.25692e-312
-7.19958e-312
-3.87747e-312
-3.91919e-312
-1.97421e-312
3.36543e-312
3.64741e-312
2.70593e-314
1.21595e-313
4.76744e-312
-4.24822e-312
6.90901e-313
-4.16765e-312
-7.52003e-313
-5.18859e-312
-4.12523e-312
5.73238e-312
3.07715e-312
-7.80546e-313
-1.69327e-312
1.50916e-312
2.23627e-313
-2.23722e-313
2.56541e-312
4.34173e-312
1.19651e-312
-1.48389e-312
1.09409e-313
-1.5565e-312
3.89738e-313
-1.65596e-312
-3.2757e-312
-2.61569e-312
-1.71851e-312
-1.3198e-312
-3.02971e-312
-1.29941e-312
-6.68917e-312
-7.63669e-312
-8.37854e-312
-4.24024e-312
1.24803e-312
2.36054e-312
6.16844e-312
-5.65583e-313
-1.95727e-312
1.64145e-312
-1.30672e-312
4.59885e-313
-2.1589e-312
-1.45542e-312
-4.62868e-312
5.5652e-313
-1.53559e-313
-3.2048e-312
-5.5398e-312
-7.06561e-312
-7.3113e-312
-1.48321e-312
2.44921e-312
-3.72161e-312
1.53369e-313
-1.19653e-312
3.46283e-313
-9.21955e-313
2.81041e-312
-7.62823e-312
-1.99609e-312
-3.51654e-312
-8.95383e-313
-5.05813e-312
-3.72229e-312
-7.16463e-312
-5.75528e-312
-6.55122e-312
-1.22522e-311
-1.38478e-311
-1.08947e-311
-5.11882e-312
6.60303e-312
1.31234e-311
-2.73414e-312
-6.28269e-312
-8.74769e-312
-1.0734e-311
-1.16298e-312
-3.94174e-312
-4.74851e-312
4.95632e-312
7.77089e-312
3.27198e-312
5.54178e-312
1.97305e-312
3.31302e-314
5.94041e-313
8.76225e-313
7.55819e-312
6.29194e-312
2.22425e-312
-4.05665e-312
-2.40339e-312
-2.1598e-312
-3.59227e-312
1.13925e-312
4.98913e-312
2.82311e-312
2.62223e-313
-2.06822e-312
-1.18703e-312
8.69403e-313
-4.18371e-312
-2.02704e-312
-3.58745e-312
1.66693e-312
-1.85314e-312
-6.41292e-313
-7.15239e-313
-5.22584e-312
-6.40898e-312
-7.92393e-312
-4.58808e-312
3.90758e-314
-1.24099e-312
3.01795e-312
9.05504e-313
-7.60273e-313
3.4007e-312
7.25194e-313
3.44166e-312
4.11748e-314
2.46887e-312
-2.227e-312
-1.73607e-313
3.80532e-313
-7.2145e-313
-2.1267e-312
-5.75263e-312
-7.00834e-312
6.63918e-313
4.41794e-312
-5.5247e-312
7.48409e-313
1.40824e-312
-3.37587e-313
-3.1071e-312
1.31039e-312
-4.74883e-312
-2.22384e-312
-1.35601e-312
-5.1806e-312
-4.34508e-312
-5.01842e-312
-3.33124e-313
2.17627e-312
-3.89493e-312
-4.54704e-312
-4.56024e-312
7.40372e-312
1.93012e-311
1.61264e-311
9.42172e-312
-3.40904e-312
-1.17041e-311
-1.22222e-311
-1.31092e-311
-5.28714e-312
-3.22478e-312
-2.09448e-312
-3.1503e-312
3.52258e-312
2.7054e-312
7.78526e-312
5.07174e-312
-3.7644e-312
2.77185e-312
2.0605e-312
8.82527e-312
7.96579e-312
8.70688e-312
-6.07738e-313
-1.11044e-313
-3.53013e-312
-1.30753e-312
1.51978e-312
5.08755e-312
2.4459e-312
9.98735e-313
-5.32839e-313
-5.04196e-313
4.27637e-312
5.32e-313
-2.61498e-312
-1.21607e-312
1.61325e-312
-1.72121e-312
-4.40747e-313
-2.19138e-312
-2.6985e-312
-5.86997e-312
-3.96434e-312
-5.0243e-312
-1.62187e-312
2.03854e-313
4.12437e-313
-1.27884e-312
-1.41567e-312
1.16031e-312
2.23627e-312
2.36957e-313
3.06394e-312
2.09247e-312
-2.91857e-312
-3.39711e-312
-3.63518e-312
-3.07977e-312
-4.71364e-312
-5.157e-312
-6.385e-312
-2.0638e-312
2.8574e-312
-5.70171e-312
-1.864e-312
-2.11679e-312
-2.88744e-312
-5.19486e-312
-3.5159e-312
-2.88655e-312
-7.45936e-312
-1.08006e-311
-1.33378e-311
-1.31816e-311
-2.93603e-312
-2.46203e-312
-5.37953e-313
-1.19384e-311
-4.29897e-312
-8.48156e-312
2.21413e-312
4.89268e-312
9.91173e-313
-4.02608e-312
-1.58105e-311
-1.56063e-311
-9.3203e-312
-7.83097e-312
-4.50059e-312
2.09742e-312
-2.24422e-312
-7.2851e-313
6.22323e-313
5.80466e-313
2.83927e-312
5.41276e-312
1.33626e-312
2.91531e-312
3.24376e-312
6.67824e-312
1.14763e-311
8.84361e-312
2.9127e-312
2.05374e-312
-1.96177e-312
-1.0084e-312
5.11709e-312
5.29676e-312
1.86007e-312
5.10183e-312
3.59362e-312
-5.63667e-313
3.13444e-312
2.72928e-312
-1.13867e-312
8.80345e-313
2.58953e-312
1.22283e-313
-2.81145e-312
-4.50398e-312
-2.61303e-312
-4.5026e-312
-4.0798e-312
-4.49957e-312
-1.9843e-312
9.679e-314
2.89723e-312
-1.1104e-312
1.20369e-312
8.60771e-313
1.18119e-312
1.65091e-312
4.27594e-312
-1.41368e-312
1.32368e-312
-3.66496e-312
-3.15754e-312
-2.85126e-312
-3.59171e-312
-4.09317e-312
-7.49468e-312
-4.47046e-312
8.81385e-313
-5.57273e-312
-3.16345e-312
-4.77643e-312
-3.86947e-312
-5.50798e-312
-9.36295e-312
-9.25194e-312
-1.07367e-311
-1.21671e-311
-1.23273e-311
-7.44731e-312
-2.33108e-312
1.71083e-312
2.96751e-313
-1.02901e-311
-1.60648e-311
-7.32845e-312
-3.86574e-312
3.7592e-312
-2.07374e-311
-1.1902e-311
-1.16272e-311
-1.17586e-311
-2.45385e-312
-3.71081e-312
-8.78425e-313
7.40047e-312
4.60603e-312
6.54065e-312
5.85577e-313
3.91763e-312
4.17924e-312
4.73264e-312
2.4116e-312
3.26265e-312
2.6511e-312
6.06113e-312
1.25724e-311
9.81511e-312
5.69678e-312
-1.57928e-313
-4.70749e-312
-6.1885e-313
3.14214e-312
5.17887e-312
8.58033e-313
6.00805e-312
5.57527e-312
2.23554e-312
-8.56142e-313
2.5566e-312
4.74211e-314
1.84492e-312
4.88143e-312
7.81389e-313
1.4527e-312
-4.13487e-312
-3.45944e-313
-4.45475e-312
-1.43064e-312
-2.03301e-312
-1.06171e-312
4.23736e-312
2.61331e-312
1.1865e-312
1.90281e-312
-6.59088e-313
2.51779e-312
2.37184e-312
1.33818e-312
-7.5583e-313
-5.15905e-313
-1.21912e-312
-1.66587e-312
1.61192e-312
-2.26152e-312
-4.79459e-312
-8.84407e-312
-8.40898e-312
2.58802e-313
-4.92487e-312
-3.21884e-312
-5.55517e-312
-2.989e-312
-4.29357e-312
-3.75276e-312
-1.08727e-311
-1.30908e-311
-1.51074e-311
-1.47479e-311
-7.03846e-312
-6.09893e-312
-2.39741e-312
2.00208e-312
-3.2425e-312
-1.45697e-311
-3.16012e-312
-1.48809e-314
-4.54957e-312
-3.68577e-311
-3.20254e-311
-3.20232e-311
-2.39436e-311
-1.55754e-311
-6.547e-312
-3.73071e-312
-4.36228e-313
2.50911e-312
7.28498e-312
-5.09921e-313
3.06057e-312
3.45909e-312
4.59733e-312
-2.17423e-312
-5.27691e-313
1.56444e-313
4.74356e-312
1.5786e-311
1.22331e-311
6.17884e-312
-1.09385e-312
-2.91191e-312
-1.3552e-312
2.5885e-312
4.07413e-312
-4.75905e-313
2.7484e-312
4.23033e-312
1.81643e-312
-1.29459e-312
-1.38858e-312
1.66118e-312
1.6195e-312
6.89281e-312
1.73212e-312
4.47639e-312
-2.41111e-312
-1.03261e-312
-3.63737e-312
-6.06914e-313
-2.73832e-312
-2.63822e-312
5.69698e-312
2.96309e-312
2.21402e-313
-1.30562e-312
-3.24598e-312
-1.287e-312
-3.83642e-313
1.54294e-312
2.6085e-312
2.25241e-313
3.61534e-312
3.36844e-312
4.07935e-312
-1.2587e-312
-6.2733e-313
-6.18393e-312
-9.86536e-312
-3.21078e-314
-4.21998e-312
-1.54771e-312
-4.24938e-312
-2.1606e-312
-8.58206e-312
-6.91322e-312
-1.28651e-311
-1.74816e-311
-1.71371e-311
-1.62875e-311
-9.54167e-312
-5.76558e-312
-7.99978e-313
-3.47278e-312
-1.77102e-311
-1.88208e-311
-2.35216e-312
9.25322e-312
1.10681e-311
-4.31377e-311
-4.37302e-311
-3.31077e-311
-3.15298e-311
-2.55446e-311
-1.04859e-311
-9.37018e-312
-5.14795e-312
-7.19043e-313
3.68915e-312
4.09478e-312
5.12907e-312
3.1764e-312
-9.82714e-313
-5.21896e-312
-2.36702e-312
3.88959e-312
3.4814e-312
1.31802e-311
1.16103e-311
5.51309e-312
3.16963e-312
2.86531e-313
-5.07157e-313
2.32313e-312
1.95132e-312
-2.59499e-312
-3.09753e-312
6.11585e-313
-3.19117e-312
-1.98342e-312
-2.61553e-312
7.57028e-313
3.10453e-313
7.70893e-312
2.73206e-312
5.81417e-312
-1.92429e-313
-1.31141e-312
-3.86265e-312
-7.77795e-313
-1.95806e-312
1.17683e-312
4.01353e-312
5.0907e-312
-7.77629e-313
1.21465e-312
-5.52226e-313
-8.22427e-313
-2.92415e-312
4.42627e-312
6.03758e-312
2.36917e-312
5.32752e-312
6.68092e-312
2.65771e-312
-2.53918e-312
-3.69728e-312
-3.83244e-312
-2.69289e-312
2.22876e-312
-1.03734e-312
8.46666e-313
-4.55877e-312
-5.66709e-312
-8.26736e-312
-1.33869e-311
-1.0471e-311
-1.80376e-311
-1.81126e-311
-1.50978e-311
-1.26333e-311
-5.22829e-312
-3.41375e-313
-1.10605e-311
-1.05365e-311
-5.06349e-312
-2.00266e-312
7.70013e-312
-7.25816e-312
-5.23648e-311
-4.48844e-311
-3.81951e-311
-2.88239e-311
-2.47555e-311
-8.29649e-312
-7.17822e-312
-7.53619e-312
-8.07727e-312
9.58114e-313
8.46032e-313
3.53757e-312
7.81555e-312
1.35353e-312
-1.26181e-312
4.33242e-312
4.90276e-312
1.00224e-311
1.34836e-311
1.26191e-311
4.58092e-312
2.99582e-312
-3.40338e-312
-1.89952e-313
2.60245e-312
5.36677e-312
-9.82003e-313
3.16025e-312
-2.2363e-312
-3.57974e-312
-2.71492e-312
-1.88221e-312
1.83502e-313
3.09382e-312
3.69931e-312
5.63683e-312
5.57798e-312
2.48655e-312
-2.22872e-312
-3.75434e-312
-3.50687e-312
-1.79496e-312
2.42162e-312
4.39172e-312
5.72166e-312
1.55161e-312
5.0294e-312
3.93636e-312
9.56603e-313
1.64668e-312
4.98822e-312
6.20156e-312
4.60127e-312
4.86811e-312
4.08464e-312
3.30649e-312
-1.44159e-312
8.87241e-313
-5.87933e-312
1.04718e-312
1.10308e-312
6.26609e-313
3.81016e-312
-1.95914e-312
-3.11493e-312
-7.50582e-312
-1.07066e-311
-9.08614e-312
-9.07161e-312
-1.2601e-311
-1.2313e-311
-1.20972e-311
-1.14069e-311
1.43619e-312
6.46829e-313
-1.08964e-312
9.48612e-312
6.71163e-312
8.38619e-312
9.06169e-312
-4.72235e-311
-5.19097e-311
-3.79835e-311
-2.72311e-311
-2.35874e-311
-1.45505e-311
-1.12098e-311
-6.69136e-312
-6.12583e-312
8.34181e-314
4.61173e-312
4.1627e-313
9.76801e-312
1.93876e-312
6.4156e-312
3.66344e-312
6.05641e-312
1.2752e-311
1.5867e-311
1.29025e-311
9.38301e-312
3.84814e-312
-4.45941e-312
3.99211e-312
5.01874e-312
4.98224e-312
2.68686e-314
2.52532e-312
-4.55159e-312
-5.72261e-312
-3.44461e-312
5.51221e-313
2.30196e-312
6.08815e-312
5.77349e-312
6.66028e-312
6.09207e-312
1.95279e-312
-1.99201e-312
-4.77699e-312
-2.37135e-312
-2.67215e-312
1.07351e-312
4.55122e-312
6.07262e-312
2.15394e-312
4.87444e-312
3.38582e-312
1.10635e-312
3.0674e-312
5.33395e-312
6.71039e-312
3.9059e-312
3.75994e-312
-7.50672e-313
-3.46954e-313
-1.83282e-312
5.21251e-313
-4.26749e-312
-2.74607e-312
-1.86937e-312
2.23581e-312
-1.7495e-313
4.14104e-312
-2.73075e-312
-4.93784e-312
-9.5249e-312
-5.26198e-312
-4.69849e-312
-8.17223e-312
-5.46645e-312
-5.07202e-312
-6.91437e-312
1.27693e-311
9.87551e-312
4.11485e-312
4.72422e-312
-1.36025e-311
-2.625e-311
-3.36708e-311
-4.97866e-311
-4.37459e-311
-3.95691e-311
-3.27711e-311
-2.39873e-311
-2.01664e-311
-1.27179e-311
-9.26298e-312
-7.50197e-312
-1.07672e-312
4.85857e-312
4.63645e-312
-4.58023e-313
-6.69984e-314
4.50052e-312
5.69647e-313
4.58348e-312
1.29621e-311
1.99403e-311
1.72703e-311
1.36305e-311
6.20047e-312
-6.32057e-314
3.74555e-312
7.15571e-312
5.94805e-312
2.2228e-312
-2.07689e-312
-3.41195e-312
-5.52718e-312
-1.55984e-312
1.6869e-312
4.3175e-312
6.66835e-312
4.47255e-312
5.57895e-312
6.72345e-312
3.87623e-312
2.38087e-312
-1.10304e-312
5.14888e-313
-1.66644e-312
1.54958e-312
6.02055e-312
7.69346e-312
2.10212e-312
3.17446e-312
-2.21387e-312
-1.69514e-312
-2.25308e-312
4.05861e-312
6.49057e-312
4.43995e-312
3.94982e-312
4.03176e-312
-1.33533e-312
3.91753e-313
-2.95554e-312
-3.37992e-312
-3.40989e-312
-1.37523e-312
1.37164e-312
9.59276e-313
8.89888e-312
1.84026e-312
1.58128e-312
-8.90483e-312
-2.42205e-312
-4.33551e-312
-7.03265e-312
-4.21535e-312
-3.44662e-312
-2.32594e-312
9.50944e-312
1.20759e-311
1.50618e-311
6.34681e-312
-4.81481e-312
-2.42068e-311
-3.70105e-311
-4.95447e-311
-4.97481e-311
-3.20689e-311
-3.07576e-311
-2.55499e-311
-1.71194e-311
-1.19413e-311
-1.09595e-311
-9.24539e-312
-6.99964e-312
1.30206e-312
-1.61861e-312
-5.13632e-312
-2.64949e-312
-2.05655e-312
-6.34147e-313
7.3181e-312
7.27917e-312
1.4958e-311
1.67406e-311
8.85223e-312
4.0618e-312
-1.26698e-312
2.48978e-312
9.14317e-312
7.75312e-312
1.48072e-312
-2.50718e-312
-4.82717e-313
-2.65843e-312
-7.87895e-314
-2.81486e-312
1.16252e-312
3.19276e-312
1.36602e-312
5.28473e-312
7.20832e-312
4.96064e-312
2.08439e-312
-5.98811e-313
3.55457e-312
1.30283e-313
4.4999e-312
7.45327e-312
7.71861e-312
4.0048e-312
-1.42763e-312
-2.11334e-312
-3.00775e-312
-1.04225e-312
4.56537e-312
8.92946e-312
7.23891e-312
5.96946e-312
6.73416e-312
1.63749e-312
2.75957e-312
-3.24936e-312
-2.64281e-312
-4.93232e-312
-1.38312e-312
-9.20613e-313
3.4664e-312
6.3826e-312
5.38302e-312
4.89135e-312
-5.2826e-312
2.86306e-313
-3.40359e-313
-4.77567e-312
-9.79776e-312
-1.43186e-312
4.20548e-313
4.68204e-312
8.3663e-312
7.36173e-312
-3.36247e-312
-1.23929e-311
-1.8991e-311
-4.14345e-311
-2.87213e-311
-2.90307e-311
-2.13559e-311
-2.06006e-311
-1.4178e-311
-8.19499e-312
-7.0926e-312
-1.1328e-311
-4.78929e-312
-4.76405e-312
-4.08439e-314
-5.08705e-312
-4.70625e-312
-3.84521e-312
9.77057e-313
3.83818e-312
9.94995e-312
6.19236e-312
1.03801e-311
1.2313e-311
9.57889e-312
3.56562e-312
3.26884e-313
2.95856e-312
7.55309e-312
7.92232e-312
3.63499e-312
-3.13371e-313
1.41286e-312
-2.206e-312
-1.66619e-312
-5.35096e-312
2.93639e-312
3.40765e-312
4.63408e-313
2.54955e-312
6.44987e-312
1.94912e-312
1.12022e-312
-1.26015e-312
6.55847e-312
3.53483e-313
3.10963e-312
7.41358e-312
6.34799e-312
5.33461e-312
4.17252e-312
2.4408e-312
-4.48559e-313
5.03099e-312
4.93463e-312
9.45235e-312
9.96141e-312
4.81057e-312
8.35036e-312
-1.41326e-312
5.92823e-312
-5.71342e-313
-6.71513e-313
-3.39886e-312
-7.56152e-312
-4.59628e-312
2.22702e-312
4.5765e-312
4.54111e-312
1.69396e-312
1.32449e-312
1.28479e-312
3.74998e-312
-3.27753e-312
-6.25798e-312
1.15844e-312
2.67396e-313
-2.99266e-312
2.87251e-312
1.04316e-312
-8.64931e-312
-1.49346e-311
-1.141e-311
-1.96859e-311
1.37006e-312
-7.93919e-312
-1.16097e-311
-1.71081e-311
-8.00739e-312
-1.34694e-312
-1.77933e-312
-6.89644e-312
1.74974e-312
4.77355e-313
-5.26231e-313
-2.02923e-312
-3.48704e-312
-7.08364e-313
6.66801e-312
5.39753e-312
1.0286e-311
1.0964e-311
9.01613e-312
1.17016e-311
8.7024e-312
4.13772e-313
1.54426e-312
6.07567e-312
6.66451e-312
1.15686e-311
5.78295e-312
3.71406e-312
3.57646e-312
5.33305e-313
-7.06629e-312
-5.17333e-312
5.8861e-312
4.73072e-312
-4.95058e-313
-1.01531e-312
4.77369e-312
4.51385e-312
4.44078e-312
6.34666e-313
3.83623e-312
1.70812e-312
3.83887e-313
4.98906e-312
4.98392e-312
5.41337e-312
6.76376e-312
6.64197e-312
2.87882e-312
6.55592e-312
6.34224e-312
8.58508e-312
8.93787e-312
6.6455e-312
9.68642e-312
-2.45313e-312
3.43385e-312
-1.45883e-312
-4.16208e-312
-3.05627e-312
-9.03399e-312
-3.24574e-312
-8.92469e-313
2.2046e-312
2.69931e-312
-4.20812e-312
7.67506e-313
4.43656e-312
-3.80999e-312
-5.44673e-312
-1.19363e-311
-9.74901e-312
-1.80642e-311
-1.5262e-311
-1.06817e-311
-1.19766e-311
-1.97751e-311
-1.95896e-311
-2.80036e-311
-3.17985e-311
-4.13559e-311
-3.71655e-311
-4.24639e-311
-3.51636e-311
-2.51783e-311
-8.58015e-312
-1.07218e-311
-1.12874e-311
-6.95867e-312
-1.14172e-311
-6.01571e-312
-3.31502e-312
-3.69827e-312
4.42461e-313
5.62782e-312
1.89127e-312
6.20489e-312
1.2072e-311
1.16822e-311
1.41473e-311
8.51804e-312
2.03679e-312
1.47809e-312
2.11626e-312
5.85436e-312
9.8399e-312
6.76844e-312
2.87829e-312
3.67134e-312
-2.45255e-312
-1.01297e-311
-1.01956e-311
1.64981e-312
5.10486e-312
2.10379e-312
4.51816e-313
5.7621e-312
6.78665e-312
4.99862e-312
-1.61396e-312
1.59333e-313
1.67659e-312
2.1849e-312
6.44981e-312
8.14472e-312
5.96769e-312
8.25913e-312
6.25147e-312
3.26213e-312
5.86863e-312
3.5708e-312
5.36284e-312
9.49353e-312
6.19145e-312
1.09106e-311
1.28102e-312
3.48555e-312
1.14565e-312
-6.46448e-312
-3.15254e-312
-7.97803e-312
-6.92919e-312
-8.89919e-312
-5.75733e-312
1.70518e-312
-4.37018e-312
-1.74624e-312
2.95565e-312
-4.05503e-312
-5.36556e-312
-1.51668e-311
-2.11106e-311
-2.19688e-311
-1.64974e-311
-1.60248e-311
-1.09997e-311
-1.57271e-311
-2.4138e-311
-3.01836e-311
-4.22609e-311
-5.44956e-311
-4.73107e-311
-4.73076e-311
-3.81654e-311
-2.79982e-311
-2.27733e-311
-1.78336e-311
-2.15294e-311
-1.37299e-311
-1.76349e-311
-1.53216e-311
-1.32524e-311
-1.34239e-311
-7.55072e-312
-2.78941e-312
1.56052e-312
1.63035e-312
8.07546e-312
1.19105e-311
1.46412e-311
1.07934e-311
5.19387e-312
3.1753e-313
3.39977e-312
4.77704e-312
7.91001e-312
8.47831e-312
1.12478e-313
2.34119e-312
-7.81642e-312
-6.79648e-312
-8.32301e-312
6.76151e-313
4.83297e-312
6.74684e-312
2.43844e-312
6.88724e-312
9.54365e-312
9.72393e-312
3.72685e-313
5.28077e-313
7.8781e-313
3.57707e-313
8.58194e-312
7.37192e-312
7.26017e-312
6.27494e-312
6.3337e-312
2.76813e-312
7.80975e-312
8.48851e-313
1.79624e-312
1.14776e-311
3.7552e-312
6.10916e-312
7.04275e-313
-9.82086e-313
-2.50819e-313
-6.36151e-312
-7.43272e-312
-1.02878e-311
-9.6133e-312
-9.88066e-312
-9.60325e-312
4.19683e-313
-5.31896e-312
-2.69849e-312
3.59825e-313
3.04612e-312
-3.09709e-312
-9.45007e-312
-1.45401e-311
-1.89127e-311
-1.75835e-311
-1.92018e-311
-1.44194e-311
-2.31053e-311
-3.26407e-311
-3.34576e-311
-2.72063e-311
-5.03375e-311
-4.05938e-311
-3.9923e-311
-3.12712e-311
-1.95922e-311
-1.87753e-311
-1.32638e-311
-1.35402e-311
-1.55329e-311
-1.75783e-311
-1.22579e-311
-1.29468e-311
-1.59077e-311
-1.29671e-311
-4.54973e-312
-3.21874e-312
4.76316e-312
6.86278e-312
6.36511e-312
1.60313e-311
1.19406e-311
1.68461e-312
-3.66378e-312
1.68297e-312
4.38516e-312
1.11054e-311
1.14143e-311
4.60877e-312
2.93074e-312
-4.98635e-313
-5.75454e-312
-4.60965e-312
-2.86079e-313
8.41463e-312
1.08161e-311
4.83027e-312
7.30307e-312
1.12404e-311
8.57126e-312
9.63521e-313
-2.17007e-312
-7.45301e-313
-2.04076e-312
7.22764e-312
6.82075e-312
4.76386e-312
3.07881e-312
5.19432e-312
4.71813e-312
4.65253e-312
2.48107e-312
2.22834e-312
1.15351e-311
3.49543e-312
4.61115e-312
7.86896e-313
-3.38383e-312
-2.60955e-312
-7.41906e-312
-4.31401e-312
-1.0572e-311
-3.40634e-312
-6.09379e-312
-1.20677e-311
-3.77327e-312
-9.46058e-312
-9.41188e-312
-7.71377e-312
-3.62088e-312
-9.61556e-312
-9.38828e-312
-1.75796e-311
-2.60726e-311
-2.65749e-311
-2.89219e-311
-3.36267e-311
-3.40977e-311
-3.41288e-311
-3.07787e-311
-2.49421e-311
-2.52615e-311
-2.87111e-311
-2.88823e-311
-1.97903e-311
-1.87189e-311
-1.15139e-311
-1.18399e-311
-1.33133e-311
-1.79092e-311
-1.55552e-311
-9.68748e-312
-1.15948e-312
-1.15432e-311
-1.46406e-311
-7.95054e-312
-6.75609e-312
7.44455e-312
9.4581e-312
9.85815e-312
1.44993e-311
1.24226e-311
3.9773e-312
2.76438e-312
7.19304e-313
4.62772e-312
1.21064e-311
1.04984e-311
7.73911e-312
3.72407e-312
1.68473e-312
-4.21001e-312
-3.88263e-312
9.58005e-313
7.11321e-312
6.18027e-312
1.91171e-312
4.16176e-312
1.05051e-311
6.78187e-312
3.83909e-313
-5.01885e-313
-2.85132e-312
-2.12362e-313
6.52199e-312
6.99519e-312
1.15517e-312
4.29335e-313
1.96324e-312
5.78265e-312
2.73375e-312
7.24855e-312
4.30668e-312
1.06483e-311
6.57226e-312
3.89411e-312
-2.37778e-312
-4.12128e-312
-3.49738e-312
-7.12529e-312
-4.22234e-312
-8.38885e-312
2.49325e-313
-3.92557e-312
-1.11839e-311
-4.22102e-312
-9.70922e-312
-8.27036e-312
-1.34884e-311
-1.2952e-311
-1.82033e-311
-1.50653e-311
-1.57752e-311
-2.50119e-311
-2.80105e-311
-2.77231e-311
-3.34485e-311
-4.09194e-311
-4.07584e-311
-4.52542e-311
-4.45827e-311
-3.63858e-311
-3.45446e-311
-3.28944e-311
-1.57048e-311
-1.65789e-311
-1.29307e-311
-1.40835e-311
-1.51765e-311
-1.85183e-311
-1.84114e-311
-9.89081e-312
-3.146e-312
-5.14314e-312
-1.4363e-311
-1.06189e-311
-8.64118e-312
6.71434e-312
1.13441e-311
1.52524e-311
1.3504e-311
1.24666e-311
4.83065e-312
7.82006e-312
-1.39831e-313
4.41635e-312
1.12448e-311
6.17353e-312
7.71225e-312
2.28428e-312
-4.8256e-313
-5.23121e-312
-6.17391e-312
-1.87519e-312
2.74932e-312
3.38949e-312
-8.22792e-313
3.19967e-312
6.33269e-312
6.17929e-312
2.77586e-313
-8.57964e-313
-5.35091e-312
-6.82921e-313
1.05142e-312
2.22998e-312
2.59686e-313
2.05472e-312
1.04289e-312
2.7311e-312
3.14486e-312
5.1425e-312
2.55746e-312
6.72988e-312
3.22173e-312
1.99663e-312
-1.35383e-312
-3.78632e-312
-1.78954e-312
-4.33256e-312
-3.15407e-312
-5.27733e-312
-1.03457e-312
4.08842e-314
-7.76344e-312
-2.02902e-312
-1.15075e-312
-7.13168e-312
-9.17556e-312
-1.27217e-311
-1.25189e-311
-1.12825e-311
-1.58091e-311
-1.89354e-311
-2.52718e-311
-3.35688e-311
-3.85064e-311
-4.22334e-311
-4.62005e-311
-4.78442e-311
-4.91189e-311
-2.68409e-311
-2.44646e-311
-2.90966e-311
-1.34289e-311
-2.06019e-311
-2.12254e-311
-2.1232e-311
-1.61864e-311
-1.49537e-311
-1.3723e-311
-1.3345e-311
-7.63458e-312
-7.34388e-312
-1.65759e-311
-8.47611e-312
-4.38435e-312
5.23381e-312
1.55504e-311
9.7108e-312
9.16499e-312
5.06957e-312
-2.55434e-312
1.61012e-312
-4.11843e-312
3.98287e-312
6.91136e-312
6.44127e-312
4.6558e-312
3.59985e-312
-3.27235e-312
-4.36554e-312
-9.425e-312
1.37993e-312
4.61036e-312
3.67034e-312
-4.87836e-313
3.46554e-312
7.94702e-312
5.75457e-312
1.99756e-314
-1.12413e-312
-5.03697e-312
-1.63543e-312
-3.87264e-312
-3.06815e-312
-1.16618e-312
3.18195e-312
1.68753e-312
2.28743e-312
3.82754e-312
5.02783e-312
2.55433e-312
6.49444e-312
4.16149e-312
3.78484e-312
5.1081e-312
3.89409e-312
4.73363e-312
1.84762e-312
-3.20045e-312
-3.86428e-313
-4.73702e-312
7.84532e-313
-3.1717e-312
-3.23668e-312
1.6954e-312
4.02975e-312
-3.83011e-312
-1.32159e-311
-9.94388e-312
-1.88622e-311
-2.51804e-311
-2.1788e-311
-2.94881e-311
-4.00037e-311
-4.29094e-311
-4.07101e-311
-3.4629e-311
-2.67126e-311
-3.3204e-311
4.9729e-313
-8.44982e-312
-1.98183e-311
-1.98785e-311
-1.93067e-311
-2.23992e-311
-2.28227e-311
-1.8497e-311
-9.01456e-312
-2.12827e-312
-7.73631e-312
-6.51376e-312
-8.03332e-312
-1.44194e-311
-9.33462e-312
-8.16087e-312
2.84971e-312
1.25452e-311
5.93483e-312
4.22614e-312
5.70513e-312
1.8706e-312
3.29544e-312
-1.08466e-312
3.9971e-312
6.20467e-312
1.1398e-311
6.76748e-312
3.35309e-312
-1.92315e-312
-2.90663e-312
-6.42813e-312
2.25637e-312
4.10751e-312
4.08506e-312
3.76584e-313
2.15406e-312
5.5251e-312
4.06841e-312
4.2725e-313
-1.2971e-312
-2.16728e-312
-2.73869e-312
-2.30468e-312
-1.59702e-312
1.00516e-312
4.4892e-312
-1.9649e-313
1.34717e-312
5.74632e-312
3.67745e-312
9.65619e-314
6.87636e-312
7.17556e-312
3.78709e-312
8.44892e-312
8.05413e-312
9.49439e-312
8.59763e-312
2.28933e-313
-1.7993e-312
-8.48631e-312
-7.55339e-312
-6.09902e-312
-1.16686e-311
-1.88164e-312
-9.79726e-313
-4.78841e-312
-1.75972e-311
-1.7153e-311
-1.60723e-311
-2.71866e-311
-2.4919e-311
-3.42327e-311
-4.75344e-311
-4.77246e-311
-3.8826e-311
-3.00996e-311
-2.29414e-311
-1.80923e-311
8.97645e-313
3.5158e-313
-9.71303e-312
-1.70737e-311
-2.05578e-311
-2.21856e-311
-3.07597e-311
-2.99331e-311
-1.73672e-311
-9.26835e-312
-3.34392e-312
-7.55752e-313
-6.63556e-312
-1.36563e-311
-1.14705e-311
-1.1885e-311
-1.77218e-312
1.04538e-311
7.56101e-312
7.07484e-312
1.19865e-311