/*--------------------------------*- C++ -*----------------------------------*\
  =========                 |
  \\      /  F ield         | OpenFOAM: The Open Source CFD Toolbox
   \\    /   O peration     | Website:  https://openfoam.org
    \\  /    A nd           | Version:  11
     \\/     M anipulation  |
\*---------------------------------------------------------------------------*/
FoamFile
{
    format      ascii;
    class       volScalarField;
    location    "100";
    object      C;
}
// * * * * * * * * * * * * * * * * * * * * * * * * * * * * * * * * * * * * * //

dimensions      [0 0 0 1 0 0 0];

internalField   nonuniform List<scalar> 
427520
(
-2.97883e-311
-7.71168e-312
-6.4747e-312
-9.37935e-312
-6.64662e-312
-1.02773e-311
1.4306e-311
1.9075e-311
3.1623e-311
1.27351e-311
1.67959e-311
1.53545e-311
-2.27797e-311
-5.47389e-312
1.25891e-311
3.49594e-311
1.89141e-311
3.08844e-312
-5.00985e-312
-7.50299e-312
-8.65887e-312
-1.16375e-311
1.01983e-311
-4.95074e-312
3.52002e-312
7.07991e-312
3.38714e-312
2.53805e-312
-1.34567e-313
-4.93027e-312
-8.482e-312
9.27182e-312
2.22786e-311
2.39764e-311
9.24399e-313
1.33959e-311
1.91013e-312
1.07718e-311
6.33848e-312
2.79523e-312
-1.06041e-311
-1.32201e-311
-2.84803e-311
-6.92204e-312
1.01669e-311
9.95858e-312
3.56264e-311
-2.91719e-312
-5.09006e-314
-4.4508e-312
1.45997e-311
4.21959e-312
-2.28373e-311
9.18021e-313
2.4945e-311
1.842e-311
1.02132e-311
-2.1083e-311
-1.24768e-311
-7.07599e-312
-5.29568e-312
4.52706e-312
-3.87612e-312
-1.5195e-311
-2.8467e-311
-2.93874e-311
-2.54772e-311
-2.58582e-311
-1.95295e-311
4.69558e-312
7.1683e-313
-9.76743e-312
2.74405e-311
1.73112e-311
1.99439e-311
3.41743e-311
1.22519e-311
9.48791e-312
1.14131e-311
4.35089e-312
1.34155e-311
-6.20791e-312
2.65998e-312
6.44237e-312
-1.08414e-311
-2.2542e-311
1.40566e-312
-8.6733e-312
-1.04584e-311
2.42047e-311
1.16991e-311
2.64808e-312
-3.00281e-311
-2.00949e-311
4.66259e-312
1.00624e-311
1.63891e-311
-2.03081e-311
-2.85746e-311
1.05198e-312
-8.84155e-313
-6.02741e-311
-2.71623e-311
-2.35009e-311
-2.23018e-311
-4.058e-311
-1.598e-311
-1.51103e-311
-3.24715e-312
-3.12092e-311
-4.33023e-311
-6.07241e-313
-5.02368e-312
-2.10132e-311
-2.24538e-311
-2.79512e-312
1.96788e-311
-7.95728e-312
8.59581e-312
-2.58133e-311
9.43247e-313
-5.63922e-311
-3.71837e-311
9.2162e-312
1.58997e-311
2.49758e-311
-1.08619e-311
-9.44643e-312
-1.72496e-311
-2.55534e-312
5.96326e-312
3.54255e-311
1.02104e-311
-1.42904e-311
-6.72441e-312
6.44606e-312
1.68727e-311
6.94571e-312
1.89367e-311
6.12241e-312
-1.10157e-311
-2.51091e-311
-1.58263e-311
-3.13827e-311
-5.98864e-311
-2.89625e-311
-3.99922e-312
-3.19457e-311
6.148e-312
2.03425e-313
-1.08936e-311
9.49574e-312
7.95768e-312
2.02314e-311
2.72612e-311
4.27904e-311
3.66115e-311
3.1008e-311
1.9495e-311
-3.65312e-312
-2.82856e-311
-5.26902e-311
-1.5018e-311
1.26448e-311
3.35026e-312
-4.1374e-311
-1.73718e-311
-1.92469e-311
-2.14721e-311
-2.11594e-311
2.47813e-312
-4.07261e-313
8.16009e-312
-3.05595e-312
-3.1652e-311
5.7919e-312
-3.95679e-313
-2.2313e-311
-3.81383e-311
-2.91618e-311
-1.71499e-312
-4.36625e-311
-2.77635e-311
-2.56279e-311
-2.63279e-311
-6.19694e-311
-3.17879e-311
-3.74908e-311
-2.06247e-311
-1.75995e-311
-1.58891e-311
-1.30034e-311
-6.03485e-312
-3.44926e-311
-3.86697e-312
-9.59204e-312
-2.77258e-312
-1.58701e-311
-3.60981e-311
-4.37003e-311
8.42127e-312
-6.30561e-312
7.42211e-312
-1.12917e-311
3.5471e-311
-1.35518e-312
-2.81173e-311
-3.77499e-311
-3.56037e-312
1.67459e-311
2.71107e-311
3.0098e-311
3.75627e-311
-7.58757e-312
-2.18016e-311
1.12011e-311
1.03949e-311
2.01054e-311
1.19816e-311
1.58415e-311
-1.62598e-311
-4.5272e-311
-1.10861e-311
-1.23984e-311
-1.68433e-311
-2.3388e-311
7.05363e-312
2.83525e-311
2.28113e-311
1.59448e-311
1.26232e-311
3.17899e-311
3.12151e-311
1.6323e-311
2.61761e-311
1.05694e-311
-2.89219e-312
-1.86149e-312
1.34395e-311
1.95781e-311
-1.18039e-310
-8.77065e-311
-5.34077e-311
-2.81837e-311
1.63727e-311
3.90635e-312
3.10343e-313
-1.41468e-311
-2.1869e-311
-1.10554e-311
-1.18176e-311
7.38782e-313
1.24988e-311
3.6224e-312
2.1643e-311
4.58474e-311
5.05901e-311
3.54771e-311
-3.48589e-312
-1.86357e-311
9.7175e-312
-2.50069e-311
-1.65702e-311
-1.75796e-311
-4.89266e-312
-4.96735e-311
-2.86105e-311
-3.55113e-311
-3.2565e-311
-2.74623e-311
-2.19271e-311
-5.70636e-311
-2.00793e-311
-5.85116e-311
-2.26985e-311
-2.37414e-311
-1.01724e-311
-1.2441e-311
-3.71206e-311
-1.59951e-311
5.26955e-311
-1.41861e-311
6.17873e-312
-2.02425e-311
9.00396e-312
8.53894e-312
-4.09119e-311
-4.64014e-311
2.20858e-311
3.03861e-311
2.74602e-311
-6.54576e-312
2.13632e-311
-2.35994e-311
-2.64657e-311
3.00861e-311
1.18914e-311
1.12575e-311
6.04235e-312
1.51268e-311
-2.61116e-311
-6.63195e-311
-3.98415e-311
-1.06807e-312
3.12968e-311
2.31557e-311
4.34434e-311
2.97821e-311
1.95927e-311
7.2099e-312
2.97505e-311
7.06076e-311
3.41565e-311
1.23519e-311
1.29491e-311
-5.62819e-312
-3.53178e-312
-3.26616e-312
3.25433e-311
3.56197e-311
-5.84213e-311
-6.49974e-311
-6.0132e-311
-1.35583e-311
9.85164e-312
6.22274e-312
-4.05783e-312
-1.03899e-311
-7.08166e-312
-4.61169e-312
-1.63984e-311
1.70317e-311
1.56423e-311
5.16055e-312
3.73038e-311
4.17167e-311
4.14701e-311
7.15746e-311
4.71767e-311
1.50512e-311
4.52036e-311
-9.85612e-312
-1.59226e-311
-2.99805e-312
4.31806e-313
-2.89784e-311
-2.1976e-311
-2.45801e-311
-4.70261e-311
-4.2634e-311
-3.49874e-311
-6.53768e-311
-5.87976e-311
-5.41416e-311
-2.62022e-311
-1.9295e-311
-3.49352e-311
-5.06766e-311
-3.33137e-311
-1.17204e-311
1.71185e-311
-9.40044e-312
5.11707e-311
-2.25387e-311
8.16272e-312
-8.29288e-312
1.68002e-312
-7.86221e-312
1.3784e-311
2.13803e-311
5.20707e-311
-1.83773e-311
3.27315e-312
-3.6064e-311
-9.2411e-312
1.86571e-312
8.70226e-312
-7.16813e-312
-3.30156e-311
-3.57929e-311
-4.9723e-311
-6.72335e-311
-1.0418e-311
1.85096e-311
2.32218e-311
3.76773e-311
4.85862e-311
2.28381e-312
9.54925e-313
-3.48018e-311
1.72996e-312
6.69451e-311
3.5443e-311
7.0074e-312
3.19664e-311
4.04775e-312
-3.79301e-311
-2.28501e-311
6.76973e-311
1.23897e-310
6.09748e-311
3.94561e-311
4.35664e-312
3.05684e-311
2.78431e-311
2.47014e-311
6.74895e-312
-1.13182e-311
-3.03109e-312
-2.61959e-311
-1.90657e-311
1.75133e-311
2.68398e-311
1.2775e-311
5.26458e-311
7.13444e-311
5.32824e-311
5.71487e-311
2.42737e-311
1.27173e-311
1.66552e-311
4.79202e-312
1.56573e-313
1.19677e-311
-1.12231e-311
-3.25079e-311
-2.71813e-311
-2.7372e-311
-3.61574e-311
-4.2752e-311
-3.95234e-311
-5.65676e-311
-7.29875e-311
-3.12837e-311
9.19662e-312
3.6809e-312
-5.11098e-311
-5.75084e-311
-4.55724e-311
-5.21905e-311
8.53105e-312
-1.04385e-311
7.95044e-312
-3.6282e-311
-1.59046e-311
-2.95733e-313
-1.64045e-311
-1.31462e-311
-1.58381e-311
4.32352e-312
4.04536e-311
2.04505e-311
2.17776e-311
-1.94327e-311
-2.01296e-311
-1.68982e-311
-1.48086e-311
-1.84775e-311
-4.45385e-311
-4.66599e-311
-5.7786e-311
-5.17861e-311
-2.0914e-311
1.63633e-311
1.65459e-311
3.51005e-311
2.91862e-311
-9.53176e-312
-1.79425e-311
-4.07482e-312
4.3483e-311
9.0435e-311
6.22939e-311
3.26217e-311
5.85065e-311
1.59389e-311
-2.50741e-311
1.85436e-311
6.99162e-311
7.15808e-311
7.70566e-311
9.55527e-311
8.90255e-312
2.2142e-311
3.41697e-311
3.44391e-311
2.67381e-312
-1.2871e-311
2.17542e-311
-1.8083e-311
-2.15472e-311
-1.20788e-311
5.17993e-313
1.32357e-311
6.16612e-311
9.09255e-311
7.65305e-311
7.86395e-311
5.07487e-311
3.12366e-311
3.00991e-311
2.55072e-311
1.62932e-311
3.88167e-311
1.41034e-311
2.4135e-312
-1.57692e-311
-3.30404e-311
-6.91394e-311
-5.80669e-311
-5.52083e-311
-6.62373e-311
-5.69235e-311
-4.0806e-311
-7.29869e-312
3.14555e-311
-4.40695e-311
-6.61247e-311
-3.43406e-311
-5.12697e-311
-6.0777e-312
-1.37294e-311
1.31327e-312
-5.81023e-312
-3.67126e-312
-1.11923e-311
-2.28228e-311
8.88263e-313
-2.60949e-312
3.20927e-311
2.88647e-311
4.48327e-311
2.88417e-311
-2.14631e-311
-3.3291e-311
-3.39227e-311
-1.50072e-311
2.75677e-312
-1.50744e-311
-3.82485e-311
-3.26524e-311
-1.15544e-311
6.47482e-312
3.2229e-311
5.05054e-311
6.47579e-311
2.74946e-311
1.27059e-311
-5.94532e-313
2.46117e-311
5.35818e-311
9.11223e-311
9.44111e-311
3.70743e-311
2.44213e-311
-1.12312e-311
-5.52146e-311
-6.85268e-312
7.28852e-311
5.8563e-311
1.0974e-311
3.74521e-311
8.70137e-311
1.32426e-311
-5.21095e-311
-2.08897e-311
2.32536e-312
-2.50597e-312
1.04982e-311
-1.84536e-311
-1.55555e-311
-4.23426e-311
-1.83102e-311
3.20578e-311
4.44514e-311
9.27866e-311
8.27881e-311
6.22498e-311
6.52823e-311
4.21688e-311
5.58179e-311
4.89222e-311
6.64061e-311
8.91969e-311
7.76475e-311
4.95859e-311
2.93532e-311
-1.17828e-311
-3.68328e-311
-4.13626e-311
-4.13829e-311
-7.37641e-311
-8.64375e-311
-6.54559e-311
-1.13284e-311
2.46462e-311
-1.482e-311
-4.7056e-311
-3.65318e-311
-3.80754e-311
-2.60686e-311
-2.29539e-312
1.54068e-312
2.87081e-312
9.98372e-313
3.05464e-311
1.17417e-311
1.1568e-311
-4.93853e-312
4.72102e-311
6.12606e-311
3.80419e-311
-2.77501e-313
-4.49396e-311
-5.81161e-311
-2.81347e-311
-2.77876e-312
4.56942e-311
3.51835e-313
-4.81282e-311
-3.60564e-311
-7.72951e-313
3.91488e-311
4.07864e-311
5.5386e-311
7.48103e-311
6.46591e-311
4.15232e-311
2.60123e-311
3.68966e-311
3.05943e-311
4.59545e-311
5.66478e-311
-1.06245e-311
-5.59461e-312
-1.00723e-311
-2.04209e-311
2.93332e-311
2.25849e-311
-7.93543e-311
9.29409e-311
9.10352e-311
1.10475e-310
2.10528e-311
-9.0129e-312
-4.10732e-311
-3.35109e-311
-1.03067e-311
2.11878e-311
3.83947e-311
3.35106e-311
-2.00566e-311
9.27804e-312
3.78491e-311
3.12111e-311
7.5894e-311
6.13535e-311
6.762e-311
6.72173e-311
5.15594e-311
4.9018e-311
2.98846e-311
4.74171e-311
6.15429e-311
7.63356e-311
5.80728e-311
6.13018e-311
1.78893e-311
5.42413e-312
-4.16309e-311
-3.41688e-311
-4.05486e-311
-8.76138e-311
-7.99944e-311
-9.92333e-312
-2.14829e-311
-1.16568e-311
-5.19196e-311
-4.2945e-311
8.20708e-312
1.1372e-311
2.76458e-311
-6.16782e-312
-1.74758e-311
-2.09726e-311
5.45236e-311
5.56769e-311
3.8264e-311
-1.40526e-312
4.54596e-311
3.04712e-311
-2.26381e-312
-6.30178e-311
-8.94232e-311
-6.51118e-311
-7.99436e-312
2.51914e-311
6.09921e-311
1.57049e-311
-1.93128e-311
-1.90591e-311
7.11868e-312
2.18441e-311
2.10339e-311
4.32845e-311
9.36346e-311
9.25868e-311
5.03905e-311
2.27663e-311
3.49053e-311
2.69873e-311
-2.66933e-312
3.1069e-311
-3.75885e-311
-4.55028e-311
-3.09628e-311
-5.69812e-312
-4.56542e-311
-2.35813e-311
-2.84488e-311
1.62862e-310
9.1307e-311
3.73622e-311
4.75097e-311
3.45306e-311
1.15392e-311
-2.54244e-311
-7.01186e-312
2.10746e-311
5.22217e-311
5.12715e-311
4.2375e-311
2.6534e-311
3.55529e-311
5.5491e-312
8.40342e-311
6.80069e-311
5.29493e-311
7.23361e-311
6.03589e-311
6.84791e-311
5.18102e-311
5.23867e-311
5.31509e-311
6.16103e-311
4.3801e-311
7.05995e-311
3.90986e-311
-9.80956e-312
-7.54503e-311
-4.6548e-311
-5.77436e-311
-5.66485e-311
-5.12134e-311
2.93116e-312
6.45402e-312
-2.30733e-311
-6.66295e-311
-3.23945e-311
-8.58639e-312
1.22398e-311
-1.99227e-311
-3.0661e-311
-5.55049e-311
-4.2278e-311
-7.58743e-313
4.1685e-311
1.81148e-311
-1.427e-311
1.71489e-311
1.8044e-311
-1.53795e-311
-5.35952e-311
-8.26733e-311
-3.89784e-311
8.14683e-312
5.87181e-311
5.55646e-311
3.76094e-311
-1.05531e-311
-2.70394e-311
-2.22092e-312
1.4454e-312
-1.60582e-311
3.64421e-311
1.06358e-310
9.88612e-311
5.84693e-311
8.70267e-312
3.22486e-311
6.6542e-311
5.3024e-311
6.03989e-311
1.77793e-311
-3.43634e-311
-3.50044e-311
-2.72907e-311
-6.02306e-311
-6.02463e-311
-7.9686e-311
1.40193e-310
1.27722e-310
1.02244e-310
7.9788e-311
-3.25348e-311
2.38622e-312
-1.13679e-311
-4.37522e-312
-1.86839e-311
1.55717e-311
2.3513e-311
3.15452e-311
2.19357e-312
-1.60368e-311
-1.03066e-311
4.10316e-311
6.07037e-311
6.70569e-311
1.07555e-310
9.40094e-311
9.18398e-311
4.76819e-311
7.67466e-311
4.89193e-311
6.66857e-311
2.8396e-311
5.02123e-311
1.92238e-311
-5.82104e-312
-1.00026e-310
-4.5058e-311
-3.6545e-311
-4.00126e-311
-2.24132e-311
-1.83341e-311
-2.69972e-312
-1.782e-311
-3.89346e-311
-9.18691e-312
-3.45496e-311
1.11033e-311
-3.66076e-311
-3.94359e-311
-5.14811e-311
-3.69336e-311
-2.71908e-311
-3.83664e-312
-2.1456e-312
1.88206e-311
3.93669e-311
2.61811e-311
-2.66179e-312
-3.95789e-311
-9.18274e-311
-2.43314e-311
1.63052e-311
4.42862e-311
4.10548e-311
2.14894e-311
-2.30191e-311
-5.32625e-311
-5.10219e-311
-3.47471e-311
-2.13763e-311
4.68808e-311
9.5042e-311
7.09591e-311
3.73756e-311
1.21107e-311
5.16038e-311
8.41431e-311
9.43614e-311
8.63205e-311
7.16314e-311
4.61477e-311
1.08827e-311
-3.42952e-311
-1.0159e-310
-1.6812e-310
-1.40971e-310
9.71843e-311
8.58184e-311
1.11731e-310
1.07982e-310
2.32113e-311
3.59042e-311
1.01006e-312
-1.12836e-311
-3.64658e-311
1.14988e-311
1.19642e-311
8.8719e-312
2.9218e-311
3.58074e-311
2.50718e-312
9.05996e-313
6.38918e-311
8.21464e-311
9.43126e-311
9.76939e-311
6.69005e-311
3.7152e-311
1.05178e-310
7.76472e-311
7.56827e-311
5.75176e-311
6.22586e-311
2.13689e-311
-9.73198e-312
-8.71084e-311
-5.87589e-311
-4.93043e-311
-6.55105e-311
-7.1615e-312
-1.10681e-311
1.64926e-312
-2.62625e-311
-3.32113e-311
8.3387e-313
-8.95091e-312
9.40043e-312
-9.61998e-312
-2.26846e-311
-5.33965e-311
-2.9901e-311
-3.27016e-311
-1.60036e-311
1.82006e-311
4.38477e-311
7.15851e-311
2.4502e-311
-4.33245e-312
-3.05483e-311
-5.94596e-311
-5.58438e-311
2.26576e-311
3.91513e-311
3.57609e-311
1.83217e-311
-2.32562e-311
-3.12448e-311
-1.7927e-311
-3.20957e-311
-2.70967e-311
-5.36645e-312
4.67709e-311
4.06396e-311
7.09083e-311
4.85734e-311
9.00976e-311
8.91789e-311
8.52864e-311
9.90805e-311
8.31832e-311
2.35244e-311
-2.25014e-311
-2.41287e-311
-7.60457e-311
-1.07888e-310
-1.11594e-310
1.74021e-310
1.00523e-310
2.45346e-311
8.50027e-311
4.82705e-311
3.42604e-311
-9.96849e-312
-4.21637e-311
-6.97741e-311
-1.40545e-311
7.17873e-313
2.01887e-311
-3.33719e-312
6.09665e-311
4.11844e-311
1.69309e-311
3.67743e-311
9.30812e-311
7.59817e-311
6.9605e-311
6.84638e-311
4.98385e-311
1.08027e-310
9.13359e-311
7.14309e-311
8.80598e-311
5.86421e-311
7.17684e-311
3.30812e-311
-4.69385e-311
-2.30136e-311
-4.04918e-311
-7.60135e-311
1.36741e-311
1.41301e-311
-2.11416e-311
-2.78865e-311
-4.254e-311
-3.78408e-312
2.83537e-311
3.11261e-311
6.29806e-312
-2.55263e-311
-2.77474e-311
-1.87947e-312
-2.2996e-312
2.43349e-311
3.56108e-311
3.00213e-311
5.34853e-311
3.10826e-311
-1.77684e-311
-7.3109e-311
-6.39198e-311
-3.1895e-311
4.33484e-311
3.89208e-311
1.33928e-311
1.39651e-311
-3.37424e-311
-2.37329e-311
3.80324e-312
-2.37777e-311
-3.84152e-311
-2.91592e-311
1.99697e-311
4.77615e-311
5.0012e-311
5.32654e-311
9.9008e-311
1.24976e-310
1.40053e-310
1.55527e-310
1.24674e-310
8.6594e-311
7.27949e-311
6.1108e-311
6.13082e-311
6.72609e-311
7.23735e-311
1.89771e-311
1.05095e-310
9.57777e-311
9.90528e-311
-1.73782e-311
-5.25534e-311
-1.08542e-310
-1.00215e-310
-5.58928e-311
-2.44321e-311
-3.70457e-311
3.4492e-312
-5.24087e-312
2.96639e-311
1.74258e-311
2.97669e-311
2.45218e-311
6.76175e-311
6.53403e-311
5.65595e-311
9.15817e-311
6.48807e-311
1.0934e-310
1.13047e-310
9.39524e-311
7.96215e-311
5.47005e-311
4.61468e-311
2.37489e-311
-3.83179e-311
-7.32852e-311
-5.57053e-311
-5.55473e-311
-1.9437e-311
-1.60776e-311
-3.17224e-311
-4.86707e-311
-6.14594e-311
-8.56355e-312
9.92717e-312
1.4081e-311
2.97779e-311
-7.65224e-312
-1.40535e-311
2.52793e-311
4.09482e-312
3.50563e-311
1.76825e-311
3.72706e-311
6.5025e-311
4.13531e-311
4.95717e-312
-6.0217e-311
-4.77085e-311
-2.22353e-311
4.03484e-311
3.26046e-311
-2.21854e-311
9.07391e-312
-1.36001e-311
2.97284e-312
-7.89648e-312
-5.64213e-311
-6.79737e-311
-6.14481e-311
-7.87023e-312
-4.73776e-312
6.22528e-312
1.23723e-311
7.22508e-311
1.4176e-310
1.75222e-310
2.03206e-310
1.58648e-310
9.10388e-311
5.78058e-311
5.77759e-311
9.856e-311
6.0754e-311
1.09536e-310
1.8834e-310
1.63084e-310
1.18838e-310
5.45135e-311
-1.14774e-311
-2.54943e-311
-1.37618e-310
-1.27394e-310
-3.6025e-311
-1.52365e-311
-2.96221e-311
1.00579e-311
-8.21376e-312
1.62815e-311
-1.19633e-311
2.00995e-311
2.57568e-311
1.56334e-311
2.24458e-311
4.73743e-311
7.44778e-311
6.6348e-311
1.11964e-310
1.20164e-310
1.01935e-310
7.92358e-311
5.3376e-311
2.90693e-311
3.20677e-311
-2.70005e-311
-1.1737e-310
-8.7321e-311
-5.92787e-311
-3.27312e-311
-2.15767e-311
-5.26483e-311
-6.42553e-311
-4.70895e-311
-8.26372e-312
1.54696e-312
7.58468e-313
5.64528e-311
8.28798e-312
-1.73195e-311
-1.65973e-312
6.38986e-312
3.50636e-312
2.48587e-312
4.25871e-311
8.68788e-311
4.61118e-311
2.45121e-311
-3.58982e-311
-4.03413e-311
-3.41419e-311
-7.63471e-313
1.19013e-311
-3.50817e-311
7.1672e-312
-1.90425e-312
1.37858e-311
-1.44342e-311
-9.26074e-311
-8.13867e-311
-9.48682e-311
-3.12404e-311
-3.41343e-311
-4.1541e-311
-6.78743e-311
8.09878e-312
9.78125e-311
1.80463e-310
1.88758e-310
1.68966e-310
8.86631e-311
5.0978e-311
3.47943e-311
1.63618e-310
1.56567e-310
2.53511e-310
2.05491e-310
2.3472e-310
1.96656e-310
1.69349e-310
7.04037e-311
1.17768e-312
-8.49058e-311
-1.02539e-310
-5.17632e-311
-3.25392e-311
-1.97102e-311
-9.5194e-312
-2.15478e-311
-8.72146e-313
-1.32218e-311
1.86637e-311
2.76806e-311
1.55085e-311
2.65694e-311
5.09624e-311
9.41571e-311
1.05974e-310
1.449e-310
1.4111e-310
1.01394e-310
9.90359e-311
8.91933e-311
6.10154e-311
5.35364e-311
-1.76743e-311
-8.04939e-311
-8.79993e-311
-6.36974e-311
-4.39833e-311
-2.57948e-311
-2.83023e-311
-3.50531e-311
-3.60321e-311
6.54278e-312
3.23968e-311
3.26843e-311
5.83184e-311
2.25977e-311
1.81968e-311
1.43315e-311
2.16019e-311
-9.58014e-312
-8.6349e-312
5.55008e-311
6.13632e-311
3.76246e-311
1.56998e-311
-3.67527e-311
-3.02532e-311
-1.86702e-311
-5.27529e-312
1.07901e-311
-1.1836e-311
1.47708e-311
-7.53821e-312
-9.62663e-312
-4.30736e-311
-1.13755e-310
-1.05335e-310
-4.11923e-311
-1.37821e-311
-2.40901e-311
-6.34325e-311
-6.40954e-311
-8.9794e-312
7.69325e-311
1.48478e-310
1.83683e-310
1.93469e-310
1.12793e-310
1.73918e-310
1.28552e-310
1.95098e-310
2.53616e-310
3.23417e-310
2.51386e-311
1.69012e-310
1.87581e-310
1.93634e-310
1.35527e-310
-3.58804e-311
-5.872e-311
-1.58915e-310
-1.5718e-310
-6.25815e-311
-2.89805e-311
-2.40062e-312
7.33156e-313
2.4882e-312
1.81422e-311
1.29583e-311
2.77769e-311
4.06194e-311
2.61953e-312
1.35623e-311
8.71511e-311
1.35976e-310
1.25487e-310
1.71292e-310
1.3632e-310
9.3643e-311
7.86422e-311
7.09348e-311
8.50193e-311
5.73366e-312
-5.61658e-311
-9.22656e-311
-8.10365e-311
-3.65371e-311
-2.75942e-311
-4.56239e-311
-3.29274e-311
-2.29368e-311
-4.37427e-312
5.28503e-311
5.03424e-312
4.01381e-311
2.05153e-311
1.93159e-311
-3.64251e-312
1.40411e-311
7.47223e-312
-6.94883e-312
6.39837e-311
4.85854e-311
5.3887e-311
6.13596e-311
-2.40318e-311
-3.21996e-311
8.76655e-312
9.451e-312
1.63418e-311
5.72464e-312
1.67803e-311
2.7847e-311
3.81856e-311
-1.61277e-311
-6.17297e-311
-1.06985e-310
-2.92818e-311
-2.64662e-311
-3.5177e-311
-8.26651e-311
-1.07582e-310
-6.80244e-311
7.45938e-312
5.17204e-311
1.13146e-310
1.57291e-310
1.71339e-310
2.09832e-310
1.59053e-310
1.47126e-310
1.49992e-310
1.91982e-310
-5.14552e-312
1.12415e-310
2.13091e-310
1.68195e-310
1.01959e-310
-4.14005e-311
-1.4792e-310
-2.40183e-310
-1.72244e-310
-1.46335e-310
-6.41537e-311
-1.47129e-311
-7.80096e-312
-2.47581e-311
1.53338e-311
3.54361e-311
2.20166e-311
-1.23632e-311
-2.16436e-311
-2.03432e-311
4.9476e-311
8.91703e-311
1.03974e-310
1.7057e-310
1.4194e-310
1.04241e-310
6.87885e-311
6.94781e-311
1.00371e-310
1.62799e-311
-4.7695e-311
-8.71955e-311
-7.03957e-311
-9.45499e-312
-1.40107e-311
-3.29929e-311
-4.15579e-311
-1.81183e-311
1.08071e-311
2.84632e-311
-1.10342e-311
3.73952e-311
2.40799e-311
8.93634e-312
8.90225e-312
3.72898e-311
3.73947e-311
4.87919e-312
2.45476e-311
1.79517e-311
7.4479e-311
7.06588e-311
-5.04314e-312
-8.90671e-312
2.60163e-311
2.95242e-311
4.66678e-312
-1.88746e-312
1.32826e-311
3.56554e-311
6.02418e-311
2.44056e-313
7.69822e-312
-1.2492e-311
-1.0715e-311
-4.55877e-311
-3.37159e-311
-1.39189e-310
-1.405e-310
-7.39684e-311
-6.05894e-311
-3.1293e-311
-1.50726e-311
4.73278e-311
1.32368e-310
1.39887e-310
1.25025e-310
1.08885e-310
8.0177e-311
-1.45907e-311
-1.1924e-311
3.68678e-311
9.67472e-311
8.81496e-311
-2.65501e-312
-1.11404e-311
-1.20296e-310
-1.78453e-310
-1.68956e-310
-1.28878e-310
-5.36294e-311
-1.12626e-311
1.60185e-311
-4.52048e-311
-5.85286e-311
-2.53245e-311
1.7107e-311
-1.66284e-311
-2.9149e-311
-2.45306e-311
3.94979e-311
5.86121e-311
1.05114e-310
1.24353e-310
1.06534e-310
1.06483e-310
8.53864e-311
9.70511e-311
9.26912e-311
5.14928e-311
-2.78183e-311
-7.39812e-311
-7.49989e-311
9.53331e-312
-8.44217e-312
-1.67104e-311
-3.5982e-311
-4.69574e-312
-2.64736e-311
1.20927e-311
-1.85227e-312
6.58057e-311
4.52276e-311
1.02657e-311
2.69499e-311
4.26395e-311
1.42913e-311
-7.29784e-312
2.29497e-313
-2.76122e-311
5.34989e-311
7.42888e-311
4.44459e-311
4.38021e-311
6.7799e-311
6.84224e-311
1.92756e-311
-3.70244e-311
-5.18324e-311
1.88304e-311
7.25204e-311
2.12906e-311
3.04469e-311
4.11652e-311
-8.65908e-312
-5.19625e-311
-7.59091e-311
-1.81057e-310
-1.7361e-310
-9.67482e-311
-1.00446e-310
-5.75831e-311
-6.67278e-311
-4.43012e-311
1.82116e-311
1.11414e-310
1.15063e-310
6.4986e-311
-4.27985e-311
-1.62224e-310
8.30641e-311
1.21777e-310
8.09168e-311
4.71016e-311
-1.79651e-311
1.25648e-311
-3.62764e-311
-7.95157e-311
-1.42771e-310
-1.37832e-310
-9.73419e-311
-3.80616e-311
1.56272e-311
-1.92718e-311
-4.12075e-311
-3.41894e-311
-2.67036e-311
-2.40512e-311
-6.03352e-311
-1.77357e-311
5.69842e-313
4.60649e-311
1.04817e-310
1.29401e-310
8.7491e-311
7.13287e-311
9.09297e-311
9.92531e-311
7.7652e-311
7.23186e-311
-3.64064e-311
-5.89822e-311
-6.64819e-311
1.10833e-311
-2.96297e-312
-3.0483e-311
-2.88979e-311
7.71343e-312
-3.50043e-311
8.22243e-312
-1.7268e-311
4.34343e-311
5.02244e-311
1.401e-311
2.37992e-311
2.7197e-311
-1.98217e-311
3.21525e-312
-6.56934e-312
-4.03696e-312
5.98963e-311
6.85662e-311
6.38524e-311
9.86185e-311
9.56214e-311
8.60691e-311
3.07347e-311
-3.14556e-311
-5.56505e-311
-6.79604e-312
5.53338e-311
1.27842e-311
5.52851e-311
2.90915e-311
1.24505e-311
-3.56252e-311
-1.31089e-310
-1.78667e-310
-1.56671e-310
-1.43125e-310
-1.55819e-310
-1.66385e-310
-1.42818e-310
-1.02474e-310
-8.02372e-311
5.00313e-312
1.57933e-311
-1.33644e-310
-2.16471e-310
-2.89096e-310
1.80814e-310
9.40029e-311
1.48476e-310
8.83527e-311
4.61126e-311
-1.23088e-311
-5.96701e-311
-6.30371e-311
-1.54001e-310
-1.47528e-310
-1.44297e-310
-6.26009e-311
-2.6334e-312
-3.72994e-311
1.11713e-311
1.80537e-311
-2.26432e-311
-4.23998e-311
-6.5757e-311
-1.83596e-311
1.27409e-311
2.74573e-311
7.25287e-311
1.29585e-310
9.16566e-311
5.43619e-311
8.63334e-311
9.67124e-311
7.94289e-311
6.99151e-311
-3.59202e-311
-6.33305e-311
-4.98071e-311
1.41432e-311
-2.5594e-311
-4.92037e-311
-3.76738e-311
3.05877e-312
-4.1641e-311
2.60163e-311
-3.87583e-311
5.97311e-311
4.9306e-311
4.23942e-311
3.30709e-311
2.74283e-312
-4.11148e-311
-3.61032e-311
-9.27347e-312
1.49567e-311
3.08254e-311
1.07621e-311
5.73543e-311
1.33199e-310
1.40807e-310
7.80115e-311
3.45655e-311
-2.18024e-312
-3.39712e-311
-1.78413e-311
4.58251e-311
2.74946e-311
6.73322e-311
4.77911e-311
6.05125e-311
3.36675e-311
-9.61063e-311
-1.47523e-310
-1.45433e-310
-1.81608e-310
-2.10822e-310
-2.58888e-310
-2.48412e-310
-2.05235e-310
-1.40434e-310
-7.14435e-311
-7.91549e-311
-1.68944e-310
-1.68084e-310
-2.13277e-310
8.88417e-311
5.71444e-311
7.73979e-311
5.60767e-311
6.35855e-311
3.29648e-311
-7.20187e-311
-9.5719e-311
-1.23903e-310
-1.1011e-310
-1.20896e-310
-3.06067e-311
-1.54727e-311
-3.07921e-311
-2.02276e-311
1.60104e-311
6.91565e-312
-5.86905e-311
-6.13784e-311
-2.03151e-311
2.40448e-311
2.64309e-312
5.33829e-311
1.11975e-310
1.07794e-310
5.5566e-311
6.68468e-311
6.88498e-311
8.53831e-311
7.04187e-311
-1.77103e-311
-4.25478e-311
-6.17045e-311
-1.02728e-311
-1.61533e-311
-4.57196e-311
-5.08572e-311
-2.52186e-311
-4.63464e-311
-8.04334e-312
-1.97488e-311
4.18138e-311
2.89689e-311
2.06526e-311
4.48905e-311
4.03955e-312
-2.92801e-311
-6.20362e-311
-4.07566e-312
-8.25298e-312
-2.37504e-311
-3.90955e-312
3.85367e-311
1.53072e-310
1.58885e-310
8.83676e-311
3.89904e-311
-4.05035e-312
5.73887e-312
-1.45429e-313
4.26857e-311
4.96233e-311
7.02517e-311
5.59239e-311
6.01875e-311
5.17883e-311
-5.91878e-311
-1.4205e-310
-1.36759e-310
-1.85139e-310
-2.31542e-310
-2.72e-310
-2.73931e-310
-2.22013e-310
-1.5785e-310
-1.63853e-310
-1.62389e-310
-2.28083e-310
-1.65843e-310
-1.46697e-310
1.04391e-310
9.39298e-311
6.99678e-311
7.21815e-311
5.26895e-311
3.05386e-311
-2.90267e-311
-6.7223e-311
-1.36998e-310
-9.04261e-311
-6.31981e-311
-2.59684e-311
-2.73462e-312
-5.13877e-311
-6.85483e-311
-1.93549e-311
2.21226e-311
-3.64474e-311
-5.48418e-311
-2.21994e-311
-6.77295e-312
-7.89328e-312
4.21832e-311
8.53343e-311
8.13519e-311
7.59599e-311
9.70542e-311
7.99187e-311
5.29235e-311
7.66968e-311
-1.32025e-311
-3.46227e-311
-4.60428e-311
2.30085e-311
-1.96889e-311
-4.8335e-311
-5.10053e-311
-2.75701e-311
-3.59334e-311
-1.36338e-311
-4.29121e-311
3.27262e-311
3.55236e-313
4.16958e-311
3.55635e-311
-1.70896e-311
-3.69832e-311
-4.09889e-311
-3.21317e-311
-1.99569e-311
-3.21594e-311
-7.94282e-312
2.53311e-311
1.27916e-310
1.6603e-310
1.31849e-310
8.30046e-311
-2.60602e-311
1.42967e-311
-4.31456e-312
1.63963e-311
4.7671e-311
4.80224e-311
3.77431e-311
3.29904e-311
7.54771e-311
-3.12626e-311
-9.49068e-311
-7.08859e-311
-1.66688e-310
-2.18109e-310
-2.8365e-310
-2.68314e-310
-2.31389e-310
-1.85105e-310
-1.61768e-310
-1.92004e-310
-2.72858e-310
-2.07872e-310
-2.07835e-310
1.2732e-310
1.21669e-310
6.6137e-311
5.49364e-311
3.36664e-311
-2.52573e-311
-2.57903e-311
-1.32914e-311
-6.11838e-311
-6.82983e-311
-1.60298e-311
-2.71552e-311
-2.64002e-312
-5.78762e-311
-8.77943e-311
-2.34664e-311
1.24657e-311
1.86866e-312
-5.08089e-311
-2.65628e-311
-1.57975e-311
-1.41711e-311
5.65911e-311
6.99996e-311
6.24136e-311
7.12217e-311
7.30204e-311
7.23621e-311
2.88353e-311
4.40014e-311
-3.61192e-312
-4.35545e-311
-2.7734e-311
-3.52197e-312
-2.00267e-311
-4.75606e-311
-5.5539e-311
-3.66951e-311
-4.51851e-311
-2.02394e-311
-5.07862e-311
-1.9118e-311
-2.19815e-311
1.57671e-311
2.26621e-311
6.41244e-312
4.81321e-312
-3.67466e-311
-2.51835e-311
-2.67721e-311
-1.83187e-311
-3.19489e-311
1.68957e-311
1.2094e-310
1.79097e-310
1.39587e-310
1.13472e-310
1.18935e-311
8.35077e-313
-4.02041e-311
1.49763e-311
4.54761e-311
6.37336e-311
5.50847e-311
4.1416e-311
7.12765e-311
-4.03693e-312
-3.03955e-311
-4.53565e-312
-9.81615e-311
-2.01068e-310
-2.79956e-310
-2.89345e-310
-2.22684e-310
-2.10831e-310
-2.24262e-310
-2.25853e-310
-2.20623e-310
-5.06569e-311
2.92669e-311
1.60279e-310
1.52346e-310
6.24014e-311
5.62423e-311
4.33921e-311
3.38683e-311
-6.86661e-311
-1.3686e-311
-7.62394e-313
-8.8404e-311
-7.51161e-311
-3.22772e-311
-3.88242e-311
-7.05087e-311
-1.15522e-310
-3.55878e-311
1.25187e-311
2.25316e-311
-1.64777e-311
-4.55073e-311
-2.05248e-311
-2.42064e-311
1.92735e-311
3.44071e-311
5.65595e-311
7.68923e-311
5.18139e-311
4.66129e-311
3.23164e-311
4.17895e-311
1.96486e-311
-6.252e-311
-3.16513e-311
-1.79226e-311
-3.43234e-311
-4.16784e-311
-5.56727e-311
-6.97103e-311
-9.31883e-311
-6.09093e-311
-8.71792e-311
-6.16312e-311
-5.84174e-311
3.68301e-312
3.31932e-311
2.49385e-311
3.58209e-311
-3.23096e-311
-1.27198e-311
-1.1156e-311
-3.83699e-311
-3.46874e-311
-8.08309e-312
7.95383e-311
1.65137e-310
1.18106e-310
1.04156e-310
4.02635e-311
-9.19222e-312
-2.65588e-311
-3.13278e-312
2.58565e-311
7.6925e-311
9.95958e-311
3.19884e-311
4.00264e-311
-6.5835e-312
3.27321e-311
5.67281e-311
-6.23002e-311
-1.86276e-310
-2.48577e-310
-2.96963e-310
-2.42704e-310
-2.50476e-310
-2.46047e-310
-1.65344e-310
-1.21479e-310
-2.26815e-311
6.41622e-311
1.06882e-310
8.46475e-311
1.3694e-311
2.95962e-311
6.60336e-311
2.83686e-312
-5.35182e-311
-3.21211e-311
-2.99646e-311
-7.92607e-311
-1.05782e-310
-4.43409e-311
4.47656e-312
-5.89307e-311
-1.09785e-310
-4.1362e-311
2.0719e-311
4.78466e-311
2.57666e-312
-4.46399e-311
-3.20229e-311
-2.13952e-311
4.85873e-312
6.33573e-312
5.5952e-311
9.95855e-311
6.08213e-311
6.41331e-311
6.85174e-311
1.8932e-311
3.02729e-311
-7.88401e-311
-1.79881e-311
-2.32736e-311
-3.64441e-311
-6.0071e-311
-5.28638e-311
-9.13762e-311
-9.99855e-311
-1.01403e-310
-1.07476e-310
-9.8799e-311
-6.46565e-311
-1.23046e-311
8.86255e-312
2.04214e-311
5.59205e-311
-8.3936e-312
-4.55072e-311
-3.82008e-312
-7.61036e-311
-6.3229e-311
-3.31311e-311
7.15488e-311
1.52005e-310
1.22058e-310
8.78685e-311
5.26721e-311
4.65123e-312
-8.88149e-312
-1.8081e-311
-1.1765e-311
1.09929e-311
6.84855e-311
4.61488e-311
5.00082e-311
5.93742e-311
9.15457e-311
6.70387e-311
1.73087e-312
-9.59409e-311
-1.65632e-310
-2.24431e-310
-2.24134e-310
-1.97921e-310
-1.77208e-310
-4.80854e-311
7.22918e-311
9.22495e-311
6.76352e-311
1.23855e-310
7.15687e-312
5.92222e-312
3.69546e-311
1.3816e-311
-5.61909e-311
-5.5583e-311
-4.45527e-311
-5.18751e-311
-5.16949e-311
-4.39219e-311
1.37433e-311
3.58949e-311
-6.77802e-312
-6.24332e-311
-9.50574e-312
1.90746e-311
4.84532e-311
-1.3097e-312
-2.13127e-311
-4.47621e-311
-1.62058e-311
4.91232e-312
-1.1913e-311
-5.5231e-312
8.57371e-311
7.0715e-311
4.89009e-311
5.11089e-311
3.95653e-311
-4.39464e-313
-5.39474e-311
-9.29271e-313
9.72217e-313
-3.34082e-311
-6.33498e-311
-3.91175e-311
-5.11311e-311
-8.91728e-311
-8.41516e-311
-1.0085e-310
-1.15475e-310
-9.39923e-311
-3.53015e-311
-3.90839e-311
1.81551e-311
4.66101e-311
2.28653e-311
-2.83062e-311
-4.85301e-311
-6.34575e-311
-9.28075e-311
-5.01834e-311
6.81236e-311
1.47565e-310
1.24164e-310
9.38262e-311
5.47026e-311
1.56385e-311
-1.47175e-311
-5.95368e-311
-3.87193e-311
-3.90814e-311
4.66356e-311
3.70687e-311
7.87884e-311
7.91923e-311
7.97329e-311
5.04399e-311
-6.30511e-312
-4.14132e-311
-9.21721e-311
-1.30019e-310
-1.95976e-310
-1.50745e-310
-9.10652e-311
2.78515e-311
1.42184e-310
2.09796e-310
2.35209e-310
2.95462e-310
1.71698e-310
1.41344e-310
8.20813e-311
5.81195e-311
-4.89931e-311
-1.23292e-310
-1.02023e-310
-2.57043e-311
-4.22195e-311
-8.37802e-311
-1.32173e-312
3.86175e-311
3.51913e-311
-1.42788e-311
5.91152e-312
2.85212e-311
2.41437e-311
1.3071e-311
-5.95723e-312
-1.70236e-311
-1.71069e-311
-7.15986e-312
-1.02093e-311
3.82243e-312
4.98129e-311
7.6326e-311
4.87078e-311
4.35e-311
5.13679e-311
-1.71244e-311
-6.24808e-311
-3.14869e-311