/*--------------------------------*- C++ -*----------------------------------*\
  =========                 |
  \\      /  F ield         | OpenFOAM: The Open Source CFD Toolbox
   \\    /   O peration     | Website:  https://openfoam.org
    \\  /    A nd           | Version:  11
     \\/     M anipulation  |
\*---------------------------------------------------------------------------*/
FoamFile
{
    format      ascii;
    class       volScalarField;
    location    "100";
    object      C;
}
// * * * * * * * * * * * * * * * * * * * * * * * * * * * * * * * * * * * * * //

dimensions      [0 0 0 1 0 0 0];

internalField   nonuniform List<scalar> 
440320
(
-1.15822e-312
9.96453e-312
2.83603e-312
-8.68997e-312
2.35657e-312
-2.84116e-312
-9.32703e-312
-1.29726e-311
-8.93534e-312
-5.45472e-312
-8.59201e-312
-3.6836e-312
-5.32281e-312
-8.87041e-312
-7.35079e-312
6.68676e-312
1.59996e-311
6.12457e-312
-3.73733e-312
1.40369e-311
-1.13897e-313
4.07041e-313
7.38485e-312
-1.37788e-311
-8.33712e-312
2.93672e-312
5.6614e-312
1.28023e-311
7.56033e-312
6.95943e-312
-1.05133e-311
-1.50329e-312
7.0762e-313
-1.3966e-311
4.73741e-312
-3.37465e-312
-7.08178e-312
-1.96537e-312
-9.98166e-312
-7.87558e-313
-9.53238e-312
9.59845e-312
1.2355e-311
1.04424e-311
1.81689e-311
1.04657e-311
-4.41445e-312
-1.05175e-311
-1.8885e-311
1.27404e-311
-1.81473e-312
1.11728e-311
-7.91354e-312
-3.54559e-312
9.18474e-312
-2.16841e-311
-1.01821e-311
-1.3634e-312
-4.82858e-312
-7.90721e-312
-2.57158e-312
-8.0038e-312
-1.64933e-311
-1.23247e-311
4.50217e-312
1.03533e-311
-2.29272e-312
6.05305e-312
4.31372e-312
-3.06225e-312
5.89524e-312
-8.00462e-312
-9.61892e-312
8.50226e-312
9.16281e-312
-1.62343e-312
4.67811e-313
5.45444e-312
2.73812e-312
-8.87541e-312
1.58313e-311
2.00035e-311
5.58679e-312
6.10435e-312
1.3028e-311
7.63645e-312
-2.54418e-312
-1.19528e-312
1.5244e-311
1.603e-312
9.73463e-314
4.1323e-313
-7.97418e-312
-1.86421e-311
-1.72886e-311
4.69283e-312
1.27763e-311
5.34884e-312
1.28727e-311
1.14936e-311
-8.63574e-313
-2.97173e-311
-1.96587e-313
-1.08885e-314
1.21135e-312
-1.62285e-311
-7.58914e-312
-7.90602e-312
6.23219e-312
1.47391e-311
-1.2482e-311
-4.49628e-312
-9.85352e-312
-6.1183e-312
4.38354e-312
-4.68258e-312
-8.93194e-313
5.44587e-312
1.40765e-311
1.9118e-311
8.45383e-312
1.14212e-311
6.33181e-312
-5.41785e-312
1.7265e-311
3.17011e-311
2.64772e-311
-4.45127e-312
-1.3755e-313
-2.52083e-312
6.35415e-312
-1.37666e-312
-9.6406e-312
-1.19532e-311
1.84317e-311
-1.05048e-311
-7.44183e-312
2.02296e-312
-2.18767e-311
-2.31319e-311
-1.64666e-311
-1.19079e-313
-1.51076e-311
-1.0573e-311
1.29984e-311
9.37168e-312
1.226e-311
2.09467e-311
2.47765e-311
1.57508e-311
4.06575e-312
5.48931e-312
-3.30923e-312
6.25994e-312
-5.63966e-313
1.37082e-311
3.27139e-312
4.72001e-312
1.38588e-311
-3.13122e-311
-1.11406e-311
4.41812e-312
-1.57076e-311
9.24387e-312
1.96583e-311
2.54845e-311
6.33625e-312
-3.37187e-312
-5.44568e-312
-1.13586e-311
-1.42812e-311
-1.51946e-312
-5.48782e-312
-2.05294e-311
-2.6293e-311
-1.04681e-311
6.72565e-313
-6.8837e-312
1.49047e-312
-4.95784e-313
-5.4943e-312
-3.36128e-311
8.69102e-312
-4.75061e-312
-4.10739e-312
-1.61541e-311
-3.44127e-311
-1.427e-311
1.15632e-311
5.37223e-312
-2.96779e-312
-6.74053e-312
-3.32233e-311
-4.17631e-312
4.88103e-312
-5.84091e-312
3.73161e-312
2.46246e-311
3.18113e-311
1.15934e-311
2.81656e-311
1.43163e-311
1.06447e-311
-1.56296e-311
1.57242e-311
2.23938e-311
2.5034e-311
-1.65341e-311
-1.47193e-311
-1.98772e-311
8.76339e-312
7.87851e-312
-1.21316e-311
-1.68717e-311
-3.98774e-312
-1.4664e-311
-1.46171e-311
7.26859e-312
-1.78856e-312
-2.31444e-311
-1.59183e-311
4.72399e-312
-1.6284e-311
7.56314e-313
1.37859e-311
1.11624e-311
8.72382e-312
1.6203e-311
7.065e-312
8.20315e-312
-2.85401e-312
2.06983e-311
1.67951e-311
1.05337e-311
3.22085e-312
7.47258e-312
9.34737e-312
5.06594e-312
7.0067e-312
-2.42503e-311
-2.97473e-311
-1.52579e-311
2.82296e-312
-1.86819e-312
-1.60419e-313
9.84157e-312
-8.62138e-312
-1.36668e-312
-3.40636e-312
-3.8671e-312
-1.60505e-311
-7.17234e-312
-5.52609e-312
-2.51839e-311
-2.86508e-311
-3.60909e-312
-1.29044e-312
7.60595e-312
1.72805e-312
5.53034e-313
-8.16423e-313
-3.18442e-311
4.01553e-312
-1.29468e-311
-1.53233e-311
-3.33847e-311
-3.76284e-311
-2.33616e-311
6.97443e-312
7.31432e-312
8.16984e-312
2.76193e-311
2.1667e-312
1.78101e-311
8.42004e-312
-1.21192e-311
-1.07393e-311
1.60696e-311
2.61984e-311
-5.65394e-312
1.12448e-311
-2.62043e-312
1.3798e-311
-1.37118e-311
8.74967e-312
1.13545e-311
7.2922e-312
-1.88464e-311
-2.52435e-311
-1.04575e-311
5.42537e-312
8.35226e-314
-2.67242e-311
-5.93201e-312
1.25912e-311
-1.55746e-311
-2.72445e-311
-2.44437e-311
-6.26662e-312
-2.90147e-311
-1.74408e-311
-1.25228e-312
-1.9947e-311
-1.3383e-311
-8.55851e-313
4.40071e-312
1.06057e-311
1.10459e-311
2.08557e-311
-2.16471e-312
2.49983e-312
2.56981e-311
2.6674e-311
-7.43767e-312
4.69291e-312
1.36839e-311
-6.29608e-312
-1.15493e-311
-5.45059e-312
-2.05791e-311
-1.33993e-312
4.13959e-311
5.89708e-311
2.98425e-311
3.06145e-311
1.82412e-311
1.93551e-311
3.15444e-311
7.27536e-312
-3.63013e-312
-6.34704e-312
-7.53163e-312
4.07074e-312
-1.44025e-311
-1.91828e-311
-1.22929e-312
-3.35052e-312
4.74456e-312
-1.96358e-311
-2.51133e-311
-1.8515e-311
-3.25231e-311
-1.29385e-311
-3.753e-312
1.06625e-311
-1.83565e-311
-3.64454e-311
-2.88367e-311
1.26324e-312
7.74877e-312
1.16699e-311
1.88068e-311
3.26702e-311
4.60462e-311
2.20743e-311
2.95178e-312
1.07285e-311
-1.00158e-311
3.55867e-312
-1.58204e-312
1.59148e-311
2.25478e-311
4.24429e-311
-4.91985e-312
7.31765e-312
2.61383e-312
7.85738e-312
-1.5746e-311
-1.18353e-311
-1.33569e-311
4.77707e-312
-4.29041e-312
-1.45147e-311
1.43493e-312
4.16291e-314
-2.43723e-311
-4.62329e-311
-2.71585e-311
-1.15827e-311
-4.64469e-311
-3.93897e-311
-3.58644e-311
-3.44317e-311
-9.82986e-312
-3.13988e-313
6.50258e-312
2.15436e-311
2.13e-311
2.37957e-311
-1.07612e-311
-5.29059e-313
2.34442e-311
2.58236e-311
-1.3279e-311
-2.49012e-311
2.76233e-312
4.1062e-312
-2.80386e-312
7.75087e-312
-2.21645e-311
7.57002e-312
2.87932e-311
3.95149e-311
4.01461e-312
2.84462e-311
3.39853e-311
2.10781e-311
1.71929e-311
-1.09764e-311
-1.42922e-311
-3.05093e-313
5.8124e-312
8.15326e-312
-4.23599e-312
-1.1604e-311
-5.9222e-312
-3.09409e-312
2.41487e-312
-1.84199e-311
-3.58768e-311
-2.50551e-311
-1.13007e-311
-5.08622e-312
-2.10339e-312
2.78905e-313
2.59366e-312
-2.1047e-311
-2.71475e-311
-2.32837e-311
-6.62948e-312
1.54839e-311
2.12373e-311
3.50879e-311
3.66958e-311
4.69413e-311
1.10023e-311
7.44479e-312
-8.29682e-312
-1.4426e-312
-2.65441e-312
3.75452e-311
5.08763e-311
3.06188e-311
-1.29349e-312
-1.67836e-311
-1.32339e-311
-4.24312e-313
-1.46637e-311
-1.36951e-311
-1.91206e-311
3.16997e-313
3.38039e-312
1.58127e-311
2.10009e-312
-1.35264e-311
-5.43573e-311
-5.84246e-311
-3.09508e-311
-2.94729e-311
-5.51973e-311
-4.38552e-311
-3.66226e-311
-3.06959e-311
-2.32076e-312
2.14245e-311
1.89845e-311
1.30037e-311
3.13736e-312
6.81045e-312
-1.18321e-311
3.67239e-312
2.62587e-311
1.89367e-311
-2.33016e-313
-2.41445e-311
-2.04641e-311
1.39877e-311
2.88708e-311
5.78744e-311
2.96607e-312
5.85716e-311
-1.00243e-311
-3.60394e-311
-3.86907e-311
-2.54658e-311
-7.56374e-312
2.9545e-311
2.70707e-311
1.0192e-311
2.04233e-311
2.14988e-311
1.32243e-311
-2.62008e-312
8.27794e-312
-1.63607e-311
-1.59113e-311
-1.4995e-311
-1.18602e-311
-1.40288e-311
-2.10089e-311
-1.47057e-311
-3.60501e-312
-9.77754e-312
-3.56651e-312
5.08658e-312
1.26297e-311
-2.22522e-312
-1.60668e-311
-4.09204e-311
-2.50971e-311
1.37073e-311
1.01943e-311
3.77673e-311
4.07539e-311
5.24751e-311
5.91386e-312
1.91031e-311
1.83361e-311
1.407e-311
6.83476e-312
4.16593e-311
3.44568e-311
-7.22141e-312
-2.57487e-311
-3.01335e-311
-7.61631e-312
-9.44591e-312
-3.2874e-311
-2.2202e-311
-7.88444e-312
2.82707e-312
1.16746e-311
8.6507e-312
-1.17866e-311
-2.75297e-311
-5.39285e-311
-5.16833e-311
-3.19666e-311
-2.8285e-311
-4.27848e-311
-3.65202e-311
-1.72851e-311
-9.28554e-313
8.81805e-312
3.94119e-312
1.8747e-311
-1.54237e-311
-3.48732e-311
-3.29168e-311
-3.51685e-311
-1.73185e-311
2.64238e-311
1.40277e-311
1.82822e-311
9.96627e-312
-6.88201e-313
6.7952e-311
6.90673e-311
1.28996e-310
5.47493e-311
-1.32862e-310
-1.19245e-310
-1.11125e-310
-7.98476e-311
-6.49777e-311
-3.22406e-311
9.19688e-312
2.06604e-311
1.38684e-311
5.25843e-311
4.37832e-311
2.40469e-311
2.64078e-311
2.25102e-311
2.39306e-312
-4.40711e-312
-1.33081e-311
-8.14305e-312
-2.53224e-312
-3.43601e-312
-6.94015e-312
-2.55639e-311
-1.72832e-311
-1.09036e-311
6.27922e-312
2.3429e-311
1.39046e-311
-4.41872e-312
-3.57135e-311
-4.50641e-311
-1.19305e-311
-4.261e-312
1.95875e-311
4.3572e-311
4.89332e-311
7.22851e-312
3.46052e-311
2.87824e-311
3.02532e-311
3.59571e-311
3.48624e-311
2.8386e-311
-1.14021e-311
-2.89891e-311
-3.63454e-311
-3.08842e-311
-8.92341e-312
-2.21328e-311
-7.13761e-312
1.26409e-311
2.1187e-311
1.74738e-311
2.63303e-312
-2.41861e-311
-2.05909e-311
-4.59192e-311
-3.68677e-311
-3.17954e-311
-2.09829e-311
-7.68787e-312
2.13953e-311
4.30464e-311
3.55712e-311
1.10213e-311
-1.10509e-311
-2.45877e-311
-5.15575e-311
-6.09914e-311
-5.10036e-311
-6.03326e-311
-3.40478e-311
-2.96289e-312
3.13375e-311
2.39876e-311
2.34612e-311
4.99664e-311
4.93078e-311
6.37528e-311
6.00658e-311
2.77413e-311
-6.44253e-311
-4.91248e-311
-9.24599e-311
-8.77461e-311
-1.08198e-310
-3.56826e-311
-2.73145e-311
3.20777e-312
1.0973e-311
4.4383e-311
4.78864e-311
2.28775e-311
1.18658e-311
7.76924e-312
1.93804e-311
-5.22946e-312
-1.16057e-311
-1.19391e-311
-7.27257e-312
-1.45385e-311
-2.7595e-311
-2.78009e-311
-2.47008e-311
-7.45905e-312
-9.96678e-313
1.04658e-311
1.04925e-311
1.02634e-312
-1.2518e-311
-2.6555e-311
-3.38409e-312
-2.2642e-311
-2.12176e-311
9.87656e-312
4.40263e-311
4.77877e-311
4.03139e-311
1.75449e-311
2.40539e-311
2.36607e-311
4.00045e-312
2.91915e-311
-9.56131e-312
-8.86826e-312
-2.14509e-311
-4.70712e-311
-8.21539e-312
2.49702e-313
-1.4794e-311
5.82955e-312
1.39744e-311
2.14289e-311
2.31139e-311
1.03335e-312
-9.62682e-312
-7.45588e-312
1.44487e-313
4.63961e-312
1.54141e-312
4.01802e-311
6.70616e-311
6.29922e-311
2.73217e-311
1.05375e-311
-2.41909e-311
-4.9868e-311
-7.07243e-311
-6.80947e-311
-7.15546e-311
-6.03503e-311
-3.47549e-311
-2.33549e-311
3.50637e-311
4.5966e-311
6.15915e-311
8.11721e-311
6.5254e-311
3.43021e-311
5.17463e-311
6.81982e-311
-2.21346e-311
-2.49025e-311
-1.7531e-311
3.59279e-311
-1.54693e-311
-4.21802e-311
-3.87853e-311
-2.24467e-311
6.81249e-312
4.7536e-311
4.79142e-311
8.06706e-312
-1.13066e-311
-2.22385e-311
-8.67414e-312
-1.52783e-312
1.55256e-312
-8.61914e-313
-4.33124e-313
-2.99943e-311
-2.14023e-311
-3.19204e-312
1.72785e-312
2.20726e-311
-2.4046e-312
-1.00136e-311
-7.25901e-312
6.56295e-312
-3.11577e-312
-2.97585e-311
2.31513e-312
-2.37121e-311
-4.67483e-311
-2.04513e-311
2.87217e-311
6.35364e-311
5.37298e-311
3.10479e-311
2.42178e-311
1.48117e-311
2.54173e-311
2.00483e-311
-3.82599e-312
-1.5793e-311
-3.18378e-312
-1.00828e-311
1.10598e-311
-2.4923e-312
-3.9292e-312
-8.93358e-312
-5.3137e-312
2.98907e-311
3.8644e-311
2.44078e-311
1.18584e-311
2.43385e-311
1.66885e-311
2.70636e-311
3.00707e-311
4.42422e-311
7.33281e-311
6.67073e-311
6.5228e-312
2.35944e-312
-2.09263e-312
-1.90029e-311
-3.88078e-311
-4.1751e-311
-6.12429e-311
-7.29374e-311
-2.29495e-311
-1.18055e-311
-3.0862e-312
2.92085e-311
2.56474e-311
3.65818e-311
-3.93109e-312
-3.18261e-311
-1.18213e-311
-6.08244e-311
6.41359e-311
3.46847e-311
3.77895e-311
5.51104e-311
1.21254e-312
-3.29486e-311
-3.0069e-311
-1.3312e-311
-3.72172e-311
5.12088e-312
4.27286e-311
1.98852e-311
2.81003e-312
-2.99116e-311
-3.36157e-311
-2.26961e-311
-7.9409e-312
6.26153e-313
-2.34642e-311
-1.87136e-311
-3.59837e-312
1.11466e-311
8.84729e-312
2.66492e-311
-4.89445e-312
5.66919e-312
1.18792e-311
-8.72073e-312
-3.85715e-312
-3.22349e-311
9.06527e-313
-2.42827e-311
-2.85957e-311
-1.6506e-311
2.67715e-311
4.87767e-311
2.33867e-311
2.26611e-311
2.70588e-311
9.80528e-312
3.579e-311
2.50509e-311
7.05004e-312
-1.41377e-311
1.60273e-311
1.2006e-311
2.14525e-311
-3.14361e-312
2.68621e-311
-3.8222e-312
2.56859e-312
2.89509e-311
4.45078e-311
2.46617e-311
1.06493e-311
-8.57687e-313
1.2005e-311
2.94437e-311
3.60427e-311
3.59433e-311
4.36673e-311
5.6745e-311
1.79608e-311
2.99899e-311
2.18412e-311
-1.50559e-312
-3.83598e-312
-1.35983e-311
-1.39113e-311
-4.21894e-311
-3.37636e-311
-3.03863e-311
-3.37332e-311
-3.98996e-311
-3.65579e-311
-8.56518e-311
-1.01612e-310
-1.36002e-310
-1.62423e-310
-2.01453e-310
-2.32555e-311
-4.8725e-311
-1.84218e-311
1.80834e-311
-5.23351e-311
-6.04854e-311
-2.53597e-311
-6.9583e-312
-1.67738e-311
3.44366e-312
2.07644e-311
1.01786e-311
2.03501e-311
5.33096e-312
6.52624e-312
1.65943e-311
6.27597e-312
-1.97368e-312
-2.13226e-311
-2.37902e-311
-1.27249e-311
-1.56842e-311
-4.60379e-312
1.54707e-311
6.99394e-312
9.63099e-312
-5.75634e-312
-1.58547e-311
1.45613e-312
-2.02549e-311
-3.61195e-312
-1.8805e-311
-6.63266e-312
2.53087e-311
2.67006e-311
1.67499e-311
7.92519e-312
3.45357e-311
2.0346e-311
2.71217e-311
1.5124e-311
9.06296e-312
6.06159e-312
1.12372e-311
2.14731e-311
5.41747e-312
1.37543e-311
1.04382e-311
9.29866e-312
3.89932e-312
2.25748e-311
2.95411e-311
2.88121e-311
1.55189e-311
-1.3951e-313
-1.18696e-311
9.42041e-312
5.80152e-312
4.3219e-312
9.33337e-312
6.73625e-312
3.45509e-311
3.68703e-311
5.45945e-311
5.74976e-311
2.01866e-311
3.22152e-311
1.31625e-311
3.33919e-311
-1.13932e-311
-4.63062e-311
-3.09937e-311
-3.64917e-311
-6.61264e-311
-7.79062e-311
-9.67656e-311
-1.45495e-310
-1.67873e-310
-1.5629e-310
-1.46729e-310
-8.26696e-311
-1.13778e-310
-2.66335e-311
3.64002e-311
-2.20458e-311
-7.40525e-311
-2.86841e-311
-8.20631e-312
1.44598e-312
2.09646e-311
5.0081e-311
2.28508e-311
2.23985e-311
1.42217e-311
2.13293e-311
3.21362e-311
1.09577e-311
4.89082e-312
-1.00036e-311
-1.4558e-311
-1.14403e-312
-2.32674e-311
-1.56896e-311
8.10057e-312
3.90689e-312
1.46542e-311
-1.71508e-311
-1.02774e-311
7.5561e-312
-1.12851e-311
-4.85421e-312
-3.42714e-311
-1.44647e-311
2.71038e-311
3.43842e-311
3.08332e-311
5.04516e-311
5.15494e-311
4.84593e-311
4.43469e-311
-1.84637e-312
5.47672e-312
1.54621e-311
3.16745e-311
5.00368e-312
-4.33167e-312
6.22123e-312
2.55269e-311
9.53157e-312
1.97589e-311
7.81644e-312
2.58545e-311
2.93553e-311
1.03997e-311
-3.61085e-314
3.43036e-312
3.39428e-311
3.05912e-311
-6.35301e-312
-8.36768e-312
-7.69587e-312
3.74805e-311
4.09118e-311
6.34323e-311
7.6793e-311
6.30704e-311
5.3886e-311
5.38598e-311
4.7584e-311
1.51025e-311
-5.20209e-312
-1.4039e-311
-3.83135e-311
-4.33208e-311
-3.9363e-311
-2.92642e-311
-7.80772e-311
-9.61509e-311
-1.55287e-311
3.88088e-311
-8.24824e-311
-8.03997e-311
-4.03037e-311
3.11101e-311
-9.06637e-312
-2.07335e-311
-4.03122e-311
-1.59177e-312
1.80069e-312
1.71589e-311
5.97514e-311
2.84718e-311
-1.53096e-311
1.02227e-311
2.12693e-311
2.07974e-311
-1.27851e-312
2.12194e-311
-2.2964e-312
-8.88218e-312
-7.4392e-312
-1.38467e-311
-1.32355e-311
1.00317e-311
7.87063e-312
-1.30319e-312
-2.38481e-311
-1.7892e-311
-1.0554e-311
-9.2899e-312
4.26845e-312
-2.99202e-311
-2.28443e-311
-1.19498e-311
-9.59568e-313
3.37888e-311
2.10807e-311
4.67953e-311
4.04228e-311
2.81388e-311
3.83368e-312
3.57793e-311
4.14932e-311
1.80146e-311
-3.83349e-312
-6.0219e-312
-1.30551e-312
1.42049e-311
-1.25267e-311
-2.55875e-312
-1.50791e-311
4.17764e-311
2.87001e-311
9.04597e-312
-1.06907e-311
-8.71556e-313
1.84936e-311
5.29672e-311
1.89426e-311
5.05257e-312
-3.13688e-312
3.30945e-311
3.28673e-311
5.58518e-311
7.74518e-311
9.59576e-311
9.79881e-311
9.92143e-311
7.51802e-311
4.93431e-311
6.28061e-311
3.45855e-311
-2.02175e-311
-3.77631e-311
-2.34581e-311
-6.91913e-314
-6.72557e-311
-7.06311e-311
3.03165e-313
-4.07712e-311
-1.41677e-310
-8.25852e-311
-2.12575e-311
-1.69809e-311
2.11016e-312
-1.30239e-311
-1.57534e-311
2.70246e-312
6.16268e-313
2.85369e-311
6.53773e-311
3.04602e-311
-8.3727e-313
2.86898e-312
5.21973e-312
-2.50746e-312
5.13692e-313
6.77354e-312
-8.6125e-313
-7.85298e-312
-1.07021e-311
-1.62706e-312
-2.57238e-311
-1.12074e-311
8.57988e-312
9.05009e-312
-1.5276e-311
-1.7985e-311
-1.09766e-311
-1.22538e-311
4.55424e-312
-4.28119e-312
-2.35198e-311
-1.82211e-311
-6.70567e-312
1.10525e-311
-8.67516e-312
3.74746e-311
3.09366e-311
2.11472e-311
1.29575e-311
3.29725e-311
3.84132e-311
1.42281e-312
-5.64363e-313
-4.45404e-312
1.84658e-312
8.34558e-313
-2.09375e-311
-3.44447e-311
-3.27691e-311
3.64709e-311
2.69137e-311
9.20927e-312
6.48128e-312
1.6634e-311
1.20525e-311
3.72903e-311
2.92571e-311
3.54737e-312
-7.06959e-312
1.57518e-311
3.11144e-311
6.74244e-311
6.8944e-311
7.09892e-311
1.19394e-310
1.58373e-310
1.3324e-310
7.32494e-311
6.28244e-311
4.00801e-311
2.33615e-312
-1.24728e-311
4.68006e-313
-1.22289e-312
-4.41624e-311
1.60206e-311
-3.32498e-312
-8.52735e-311
-8.26072e-311
-7.72011e-311
-8.1049e-311
-3.22546e-311
9.75226e-312
-1.41037e-311
-1.43797e-312
7.49951e-312
3.80017e-312
1.56473e-311
5.39243e-311
4.0355e-311
3.28179e-311
7.05006e-312
7.04985e-312
-8.86495e-312
9.74225e-312
7.13604e-312
-8.63947e-312
-4.06069e-312
-4.22546e-312
1.31151e-312
-1.21815e-311
9.79397e-312
1.29104e-311
2.8739e-311
-9.40809e-312
3.24798e-312
-2.24047e-311
-3.25188e-311
-1.24691e-311
-8.25851e-312
-2.39609e-311
-1.18323e-311
-9.97913e-312
-7.13766e-312
-1.76588e-311
1.72415e-311
4.16186e-311
3.53245e-311
1.92915e-311
1.5103e-311
1.40444e-311
7.12554e-312
1.39071e-312
-5.31099e-312
1.00533e-311
1.94663e-311
-1.48595e-311
-4.89832e-311
-3.51731e-311
8.92557e-312
3.14488e-311
2.22063e-311
2.7208e-311
1.01311e-311
5.3065e-312
2.0644e-311
1.96521e-311
1.00356e-311
8.22705e-312
6.4466e-312
1.73546e-311
6.34215e-311
4.95977e-311
5.9733e-311
1.03232e-310
1.5491e-310
1.3305e-310
7.94181e-311
6.29038e-311
3.57464e-311
2.51349e-311
-5.40252e-312
1.16381e-311
2.07634e-311
4.1178e-311
6.29438e-311
-8.29124e-312
-1.05229e-310
-2.51448e-310
-1.80213e-310
-1.1545e-310
-5.0942e-311
-7.85815e-312
-1.2571e-311
1.5017e-311
1.02563e-311
3.681e-311
4.42017e-311
2.16005e-311
1.2264e-311
1.18037e-311
3.93954e-312
2.7702e-311
2.34199e-312
3.84241e-311
-3.78253e-312
-2.02571e-311
-1.66384e-311
4.98138e-312
-2.4125e-311
-1.83006e-311
8.4272e-312
-1.2967e-312
3.7974e-312
-2.63843e-311
3.35517e-312
-5.30532e-312
-4.85661e-312
-1.40133e-311
-2.70831e-311
-2.0376e-311
-1.09183e-311
-4.4922e-312
-2.26468e-312
7.91828e-312
5.76288e-312
4.46709e-311
3.42919e-311
1.62723e-311
2.11591e-312
-5.51883e-313
2.02257e-311
1.23732e-311
4.74046e-312
2.6221e-311
3.43602e-311
1.7223e-311
-4.04175e-311
-3.58038e-311
1.8592e-312
4.43981e-311
1.81518e-311
1.95899e-311
-9.12224e-312
-6.52389e-312
-4.80868e-312
1.47102e-311
1.31618e-311
-1.4986e-311
-3.65562e-312
7.53205e-312
3.85512e-312
2.36421e-311
9.01301e-312
3.99851e-311
1.05716e-310
1.14818e-310
8.7202e-311
9.62242e-311
7.02872e-311
6.81111e-311
3.1374e-311
2.89509e-311
3.35625e-311
5.03122e-311
1.33717e-311
-5.77261e-311
-1.37002e-310
-1.66417e-310
-1.24783e-310
-9.76029e-311
-4.03169e-311
-1.77271e-311
-2.83405e-311
-7.30541e-312
-2.67175e-311
1.42603e-311
9.17611e-312
-1.44364e-312
-1.23496e-311
-3.92119e-311
-2.03274e-311
1.60635e-311
9.81075e-312
4.00381e-311
5.98043e-312
-3.33147e-311
-9.79984e-312
-3.74913e-312
-4.73045e-311
-4.93076e-311
-1.45973e-311
-3.25702e-311
-2.02844e-311
-4.44704e-311
-1.91279e-312
2.60469e-311
2.93719e-311
-5.03362e-313
-2.80686e-311
-3.44691e-311
-2.65211e-311
-1.31467e-311
-7.31254e-312
1.81151e-311
1.06421e-311
3.48396e-311
2.67227e-311
1.39405e-311
-1.36459e-312
9.41567e-312
2.99059e-311
2.68379e-311
1.92132e-311
3.32716e-311
3.18304e-311
2.12793e-311
-5.94904e-311
-4.09312e-311
8.1913e-312
3.67613e-311
3.00825e-311
4.54979e-312
-1.7207e-311
-6.47137e-312
-6.79709e-313
7.5716e-312
2.1007e-311
-7.68489e-312
-7.84693e-312
-1.72392e-311
-1.43105e-311
1.63103e-311
-2.21823e-312
2.59001e-311
7.00899e-311
1.05551e-310
9.04625e-311
1.19757e-310
9.62406e-311
8.97938e-311
7.76034e-311
3.70874e-311
-7.43392e-312
2.02709e-311
-2.24378e-311
-5.46357e-311
-1.13733e-310
-4.97943e-311
-5.55282e-311
-2.82599e-311
-2.7624e-311
-2.80193e-311
2.05019e-312
-3.97813e-312
-2.5433e-311
1.14559e-311
2.78371e-311
-3.09778e-312
-4.97468e-312
-2.48836e-311
-3.51007e-311
-2.61809e-311
1.6137e-311
2.51697e-311
2.89514e-311
3.59492e-312
-7.56862e-312
-7.35361e-312
-3.0234e-311
-3.74402e-311
-1.59724e-311
-4.86369e-311
-3.22695e-311
-3.33255e-311
-1.6966e-311
1.63989e-311
3.09036e-312
1.51659e-311
-3.19696e-312
-1.77927e-311
-4.37793e-311
-3.38537e-312
-9.77561e-312
-6.5343e-312
1.1917e-311
2.29162e-311
1.44207e-311
4.47141e-312
-9.34472e-312
1.37108e-311
8.68575e-312
-3.01021e-312
1.98448e-313
1.6591e-311
1.77299e-311
2.07085e-311
-7.00932e-311
-4.94168e-311
-6.74289e-312
4.02268e-311
2.70247e-311
-2.38388e-312
-2.48414e-311
-2.97018e-312
5.28212e-312
-1.16086e-313
-8.48681e-313
-2.4229e-311
-4.77729e-311
-5.10763e-311
-6.41439e-311
-1.9569e-311
-1.88655e-311
2.34939e-312
5.64552e-311
1.13784e-310
9.0132e-311
9.50746e-311
6.71459e-311
7.59686e-311
2.18645e-311
2.99192e-311
3.82945e-311
2.21945e-311
-1.73613e-311
-3.03592e-311
-1.04823e-310
-1.21215e-310
-6.6921e-311
-5.9699e-311
-7.47572e-311
-2.08824e-311
6.34352e-312
-2.75716e-311
-3.12615e-311
1.48415e-311
3.8089e-311
2.03593e-311
9.78001e-312
-1.12956e-313
-3.32562e-311
-4.77892e-311
-2.50489e-312
-8.8333e-312
1.29216e-311
4.55754e-312
-9.92586e-312
-1.81816e-311
-1.73686e-311
-2.44439e-311
-2.05106e-311
-3.18378e-311
-7.3355e-312
-2.22845e-311
-3.23129e-311
-6.89728e-312
3.67001e-312
6.25888e-312
1.40141e-311
1.85684e-312
-1.3011e-311
-5.05779e-312
-1.65014e-311
-1.61412e-311
-1.46418e-312
2.38353e-311
1.71532e-311
4.42211e-312
6.38102e-313
1.16511e-311
9.5903e-313
-2.07594e-311
-7.30389e-312
1.16821e-311
2.07124e-311
4.76378e-312
-4.898e-311
-4.67591e-311
-5.58739e-312
5.77176e-311
4.82319e-311
1.11396e-311
-3.27107e-311
-2.42829e-311
-2.84097e-311
-3.71559e-311
-1.81201e-311
-2.91056e-311
-6.33991e-311
-7.39239e-311
-7.21102e-311
-4.28058e-311
-5.62234e-311
-3.22453e-311
3.39502e-311
7.19211e-311
4.92376e-311
4.78585e-311
1.06849e-311
2.62113e-311
-5.02545e-312
-4.47015e-312
1.95819e-311
-2.29219e-311
-2.78874e-311
-1.26811e-311
5.11427e-311
1.5467e-311
-5.44292e-312
-2.79147e-311
-9.80448e-312
1.45162e-311
3.13811e-311
-4.73729e-312
8.09303e-312
2.69615e-311
8.06161e-312
1.59264e-311
1.27205e-311
8.30566e-312
-4.04844e-311
-3.37091e-311
-2.18253e-312
7.81223e-312
-1.19549e-311
-7.07045e-312
6.31903e-313
-1.54838e-311
-3.20713e-311
-5.81057e-311
-3.28502e-311
-1.74815e-311
-8.7438e-312
-1.69911e-311
-2.30736e-311
-2.27714e-311
4.14034e-312
8.98519e-312
-2.50662e-312
1.19761e-311
8.24501e-312
-5.35994e-312
-1.596e-311
-1.85561e-313
1.74855e-311
3.91573e-311
2.57916e-311
-2.63713e-312
-1.23292e-311
-2.13689e-311
-1.55933e-312
-3.05573e-311
-9.29356e-312
1.30186e-311
3.7802e-311
1.28115e-311
-3.59699e-311
-5.64303e-311
1.20357e-311
3.09733e-311
4.76836e-311
1.95115e-312
-3.70135e-311
-5.71134e-311
-8.15421e-311
-7.59177e-311
-8.81433e-312
-2.15324e-311
-4.88052e-311
-3.70251e-311
-4.03436e-311
-5.17372e-311
-6.90956e-311
-2.08189e-311
3.53895e-311
4.75185e-311
3.55575e-311
3.60921e-311
8.36644e-312
4.34338e-311
-1.20413e-313
-5.524e-311
-4.38001e-311
-8.72372e-311
-9.15086e-311
-8.6949e-311
-7.47113e-311
-2.87045e-311
-5.03181e-311
-2.52344e-311
-2.69385e-311
-6.89597e-313
1.96954e-311
1.8902e-311
-6.98971e-312
1.92191e-311
3.71868e-311
2.10038e-311
1.37948e-311
-8.00019e-312
-1.87084e-311
-6.00367e-312
3.276e-311
1.75789e-311
5.49929e-312
-1.87886e-313
3.90218e-311
1.23595e-311
-2.92479e-311
-6.51692e-311
-4.81724e-311
-3.48271e-311
-2.48762e-311
-1.3689e-311
-2.6576e-311
-4.29223e-312
9.00287e-312
3.23531e-311
-1.93192e-312
-6.72542e-312
-2.60057e-313
-2.34385e-311
-2.71488e-311
-1.27443e-312
-4.21591e-312
2.52015e-311
2.6208e-311
1.20649e-311
6.34477e-312
-3.46455e-311
-5.58963e-312
-4.2853e-311
-4.85873e-312
4.6467e-313
2.61878e-311
1.79761e-313
-2.16634e-311
-6.62107e-311
-1.31394e-311
1.67046e-312
2.14543e-311
-8.00775e-312
-3.06345e-311
-5.25293e-311
-9.88748e-311
-1.0159e-310
-3.25603e-311
-5.17519e-311
-7.50223e-311
-5.37031e-311
-5.03821e-311
-7.16822e-311
-7.63243e-311
-2.4014e-311
7.56128e-312
2.55034e-311
2.339e-311
-2.76237e-312
-9.61836e-312
-4.25482e-312
-6.21576e-311
-1.33785e-310
-1.18135e-310
-1.70668e-310
-1.91212e-310
-1.60614e-310
-2.5223e-310
8.57348e-311
6.79648e-311
1.81815e-311
-5.98731e-311
-3.95553e-312
-4.81753e-312
6.25257e-312
-1.6125e-312
1.99142e-311
8.34513e-312
-9.74297e-312
3.1809e-311
4.48361e-311
1.81754e-311
-1.22953e-311
1.03932e-311
7.52735e-312
-3.16064e-313
-2.31117e-311
6.24561e-312
1.87343e-311
-1.60102e-311
-5.20708e-311
-5.60997e-311
-4.17131e-311
-4.23614e-311
-4.08323e-311
-2.20935e-311
-1.2438e-311
8.45277e-312
2.8114e-311
1.32465e-312
-8.35191e-312
6.70047e-312
-5.35259e-312
-3.96615e-311
-7.3904e-312
-3.42605e-311
1.03392e-311
1.29668e-311
3.41085e-311
2.80372e-311
-3.3159e-311
-2.9381e-311
-3.83034e-311
-7.64098e-312
2.26508e-311
3.06384e-311
2.09617e-311
-2.44487e-312
-4.6723e-311
-2.76153e-311
-2.11408e-312
2.00157e-311
1.81054e-311
-1.63535e-311
-3.57163e-311
-7.16935e-311
-9.23859e-311
-5.91867e-311
-3.76196e-311
-9.03987e-311
-9.35328e-311
-8.86061e-311
-7.83214e-311
-1.13776e-310
-6.68664e-311
-1.84682e-311
-4.50657e-312
1.1914e-311
-2.76925e-311
-5.7301e-311
-7.90231e-311
-1.12606e-310
-1.93106e-310
-1.67572e-310
-2.38418e-310
-3.1583e-310
-3.30279e-310
-3.9815e-310
1.59973e-310
1.04512e-310
2.42068e-311
-2.83485e-311
-2.26325e-311
-2.70421e-311
-2.07241e-311
-1.75133e-311
-1.77703e-311
-2.094e-311
-7.74447e-312
3.06775e-311
3.94993e-311
1.48782e-311
-5.41739e-312
2.905e-312
8.2039e-312
2.8986e-312
-3.54051e-311
-7.52364e-312
7.29838e-312
-1.98943e-311
-4.82245e-311
-3.91998e-311
-2.92151e-311
-2.48432e-311
-2.71564e-311
-2.34893e-311
-1.42078e-311
7.34671e-312
2.94784e-311
-1.45502e-312
-2.42949e-311
-6.06874e-312
2.75677e-311
-1.34109e-311
-2.48178e-311
-3.28468e-311
2.347e-311
4.10213e-311
4.65003e-311
1.63716e-311
-1.7854e-311
-2.64621e-311
-3.16191e-311
1.51758e-312
4.47123e-311
3.91603e-311
1.93417e-311
-2.533e-311
-4.52417e-311
-1.81904e-311
9.31243e-312
3.52139e-311
2.28711e-311
-2.59561e-311
-5.50767e-311
-8.34642e-311
-9.62251e-311
-7.34965e-311
-3.75159e-311
-9.12883e-311
-1.27439e-310
-1.20212e-310
-9.25022e-311
-1.06054e-310
-7.51415e-311
-3.44607e-311
-5.34079e-311
-1.96446e-311
-3.88374e-311
-8.22671e-311
-1.31559e-310
-1.86351e-310
-2.44035e-310
-2.62458e-310
-2.82178e-310
-2.97012e-310
-3.07435e-310
-3.41784e-310
1.47441e-310
1.23089e-310
4.99307e-311
-1.92387e-311
-3.04937e-311
-4.30976e-311
-3.21375e-311
-3.84636e-311
9.52882e-313
-1.73462e-311
1.10793e-311
-1.25255e-311
-1.1473e-311
9.33821e-312
2.38923e-311
2.3556e-311
1.49196e-311
3.49329e-312
-2.57034e-311
8.2211e-312
2.95782e-311
-7.99145e-312
-4.15016e-311
-3.99916e-311
-3.07555e-311
-2.7523e-311
-1.02862e-311
-2.71549e-311
1.18476e-312
1.76293e-311
3.8143e-311
1.83935e-311
-2.54503e-311
1.88713e-312
3.34068e-311
1.32294e-311
-3.01386e-312
3.55107e-312
2.58542e-311
4.61318e-311
3.96464e-311
-6.38885e-312
-3.44622e-311
-3.24483e-311
-3.94184e-311
-3.14216e-313
3.43497e-311
4.27425e-311
2.57464e-311
-1.51503e-311
-4.1881e-311
-1.40542e-311
1.31921e-311
2.60046e-311
2.97601e-311
-2.65292e-311
-5.1644e-311
-9.95343e-311
-1.23717e-310
-1.03116e-310
-7.1407e-311
-9.49506e-311
-1.32641e-310
-1.22569e-310
-7.68251e-311
-7.78067e-311
-5.95161e-311
-1.49406e-311
-1.34914e-311
4.12447e-313
-1.38008e-311
-4.91666e-311
-1.27215e-310
-1.68168e-310
-2.1519e-310
-2.35421e-310
-2.69631e-310
-2.77767e-310
-2.7021e-310
-2.75299e-310
2.71172e-311
1.90855e-311
1.52252e-311
-4.1306e-311
-4.50181e-311
-6.36603e-311
-5.07501e-311
-1.90318e-311
2.62178e-311
2.78051e-311
3.45636e-311
2.74769e-311
9.35587e-312
-2.03836e-311
3.08862e-312
-1.53093e-311
2.775e-311
1.87454e-311
-7.63725e-312
2.19488e-311
4.43145e-311
9.46241e-312
-1.93109e-311
-3.26885e-311
-2.95191e-311
-4.25425e-311
-4.02776e-311
-3.96796e-311
-2.63553e-312
2.95265e-311
6.67743e-311
4.46194e-311
-3.57037e-312
1.73956e-311
3.50581e-311
1.39644e-311
6.55253e-312
1.67099e-311
4.63838e-312
2.69802e-311
3.39635e-311
1.02662e-311
-3.14714e-311
-5.88322e-311
-4.83391e-311
-1.36499e-311
4.13313e-312
2.26512e-311
3.49804e-311
1.57079e-311
-1.65011e-311
-1.68796e-311
-1.00148e-312
2.77582e-311
4.03303e-311
1.11801e-311
-3.0836e-311
-9.95619e-311
-1.29854e-310
-1.1905e-310
-1.1513e-310
-1.1379e-310
-1.35055e-310
-1.12048e-310
-8.8012e-311
-6.44308e-311
-4.34883e-311
-1.74562e-311
-2.06097e-311
-1.68423e-311
-6.58556e-311
-7.05949e-311
-1.4523e-310
-1.5713e-310
-1.74613e-310
-1.65336e-310
-1.63544e-310
-1.53678e-310
-1.38815e-310
-2.0403e-310
1.21876e-310
9.33136e-311
6.07222e-311
2.30881e-311
-2.63406e-311
-3.77273e-311
-2.71752e-311
2.00848e-311
-3.06705e-312
4.43287e-312
-6.46807e-313
5.22459e-311
2.51406e-311
-1.59002e-311
1.83001e-311
-1.06793e-311
4.06768e-312
5.89583e-312
1.94415e-312
2.17455e-311
2.84625e-311
3.1866e-311
-8.70064e-312
-2.02994e-311
-2.14478e-311
-4.36577e-311
-6.12745e-311
-5.32341e-311
-9.2957e-312
2.6135e-311
7.179e-311
5.72986e-311
-7.74728e-312
9.06698e-312
3.00318e-311
3.30938e-313
-8.55458e-312
-2.07285e-311
-3.2665e-314
1.63768e-311
4.93592e-311
8.18121e-312
-3.45008e-311
-7.54044e-311
-3.19854e-311
-1.32015e-311
-3.27178e-312
1.63347e-311
2.12967e-311
4.54381e-312
-2.89501e-311
-1.69975e-311
6.85302e-312
4.35243e-311
5.62119e-311
3.74442e-311
-3.23123e-311
-9.83968e-311
-1.32508e-310
-1.22469e-310
-1.26613e-310
-1.28277e-310
-1.24097e-310
-1.02517e-310
-4.8003e-311
-5.26286e-311
-6.50687e-311
-5.30864e-311
-3.33802e-311
-2.84311e-311
-6.85387e-311
-5.53448e-311
-1.13614e-310
-1.61095e-310
-1.39362e-310
-1.27053e-310
-1.33273e-310
-1.1321e-310
-1.05924e-310
-1.90002e-310
9.61305e-312
9.0719e-311
1.06535e-310
2.37413e-311
-5.12567e-311
-6.98748e-311
-6.6214e-311
-3.36605e-311
-2.73884e-312
-8.21842e-312
-2.24695e-312
5.61105e-311
3.71988e-311
4.02639e-312
2.54983e-311
2.81452e-312
9.18967e-313
1.36647e-311
-9.58426e-312
1.08379e-312
-6.5808e-313
-6.26821e-312
-3.85628e-311
-1.89686e-311
-2.8471e-311
-5.31446e-311