/*--------------------------------*- C++ -*----------------------------------*\
  =========                 |
  \\      /  F ield         | OpenFOAM: The Open Source CFD Toolbox
   \\    /   O peration     | Website:  https://openfoam.org
    \\  /    A nd           | Version:  11
     \\/     M anipulation  |
\*---------------------------------------------------------------------------*/
FoamFile
{
    format      ascii;
    class       volScalarField;
    location    "100";
    object      C;
}
// * * * * * * * * * * * * * * * * * * * * * * * * * * * * * * * * * * * * * //

dimensions      [0 0 0 1 0 0 0];

internalField   nonuniform List<scalar> 
440320
(
-4.80205e-314
-7.57083e-315
3.79046e-314
9.29479e-315
-9.84748e-314
-9.79281e-314
-2.23037e-314
2.78803e-314
5.62012e-314
7.55819e-314
3.31656e-314
1.0638e-313
-4.87836e-314
-3.78088e-314
-8.25675e-314
-1.07666e-314
8.70817e-314
1.28756e-313
3.34183e-316
-1.76153e-314
2.8643e-314
-2.39482e-314
7.59362e-314
9.20976e-315
-1.67435e-315
-2.95093e-315
-6.0031e-316
-1.11868e-316
1.96135e-317
-2.5627e-317
-4.30575e-318
-5.1535e-319
-8.2504e-320
-1.18922e-320
-1.64524e-321
-2.32211e-322
1.97626e-323
-6.42285e-323
-1.08694e-322
-1.04248e-321
-2.1393e-321
5.68966e-320
1.22783e-318
1.40654e-317
1.15045e-316
7.21166e-316
3.29279e-315
1.04352e-316
-1.78443e-315
-1.43603e-314
-1.11751e-313
-1.87156e-315
8.90542e-314
-8.18459e-316
-1.35468e-313
-8.301e-314
9.01828e-315
1.04563e-313
-5.76531e-314
4.88823e-314
-6.77064e-314
-6.16524e-314
1.16035e-313
-1.00756e-313
5.12325e-314
-8.32558e-315
-1.24916e-313
2.92518e-314
-3.50353e-314
8.42143e-314
-6.49233e-314
-6.13903e-314
6.35382e-316
-3.51615e-314
4.00517e-314
7.73263e-314
3.56178e-314
9.76573e-314
-5.30833e-314
8.24502e-314
3.84332e-313
2.02499e-313
-5.59913e-314
1.27465e-313
1.49321e-313
3.09461e-313
1.63531e-313
8.18865e-314
5.38516e-314
1.05713e-313
-2.20736e-314
8.25137e-314
-1.66991e-313
-1.88553e-313
-6.83667e-314
-8.57999e-314
-1.66246e-313
-1.19963e-314
8.28915e-314
-7.23993e-314
-2.36242e-314
1.08671e-314
-6.1376e-314
3.31325e-314
-1.05534e-313
-1.28785e-313
-2.57032e-314
-4.88914e-315
9.19385e-316
-1.06469e-315
-1.79265e-316
-2.13228e-317
-3.41143e-318
-4.94214e-319
-6.76376e-320
-8.78449e-321
-7.80624e-322
7.65802e-322
3.42882e-321
-1.2653e-320
-3.16637e-319
-2.53842e-318
-6.40309e-318
1.07788e-316
1.75026e-315
1.59649e-314
1.37337e-313
1.23307e-314
-9.707e-315
-8.67316e-314
-4.68054e-315
-1.01518e-314
7.48536e-315
-5.59558e-314
-9.97295e-314
-6.44122e-314
-4.33775e-314
5.0134e-314
5.35597e-314
3.43769e-315
1.93117e-314
-5.48339e-314
7.12517e-314
7.75925e-314
-4.12254e-314
-1.61812e-313
-6.19976e-314
-7.68762e-314
7.11753e-314
4.16824e-314
8.34341e-314
2.91498e-314
-9.10868e-314
-4.33567e-314
-6.67966e-315
-1.21804e-314
-2.55131e-314
7.12488e-314
-3.61095e-314
1.89193e-313
1.18026e-312
1.71404e-313
-1.23352e-313
-2.88301e-314
-6.93094e-315
4.23135e-313
4.36801e-313
3.65278e-313
1.54307e-313
1.13255e-313
5.22247e-314
3.45865e-314
-2.00993e-313
-4.00582e-313
-2.1806e-313
3.7699e-314
-3.47176e-313
-1.57364e-313
-1.22955e-314
-6.25933e-314
-4.66529e-315
2.6446e-314
-4.58292e-314
-2.31981e-314
-1.16636e-313
-7.78894e-314
-1.22443e-313
-6.23446e-315
2.64467e-314
-4.65441e-314
-7.76835e-315
-9.23283e-316
-1.45857e-316
-2.09376e-317
-2.84298e-318
-3.67318e-319
-3.49008e-320
2.6892e-320
1.84558e-319
7.00926e-319
-2.27946e-318
-7.42169e-317
-7.42568e-316
-3.88464e-315
-7.51963e-315
-5.50471e-314
1.10972e-314
4.64138e-314
5.71711e-314
-6.17201e-314
8.77267e-314
-1.0823e-314
2.31887e-314
3.94363e-314
5.30964e-314
-3.80545e-314
7.3217e-315
5.36006e-314
6.30462e-314
2.58555e-314
-6.26448e-314
8.36962e-314
3.24056e-315
-8.85984e-315
-1.01185e-313
-1.12909e-313
3.01756e-314
8.20732e-314
8.2766e-314
-4.50553e-314
-4.88596e-314
1.05861e-313
9.39801e-314
2.14439e-313
2.93641e-313
2.05284e-313
1.91564e-313
9.16715e-314
4.00298e-314
3.34166e-313
1.919e-312
1.00707e-312
2.81081e-313
-1.67072e-313
-1.02073e-313
4.5378e-313
5.94416e-313
6.58644e-313
5.11464e-313
5.16067e-313
2.46169e-313
-9.04641e-314
-1.07926e-313
-3.33843e-313
-4.00774e-313
-1.20112e-314
-2.34212e-313
-4.74551e-313
-2.6839e-313
-1.59751e-313
-1.197e-313
-3.88837e-314
3.71097e-314
-3.14975e-314
-3.99113e-314
-2.23774e-314
-2.30503e-316
3.00473e-314
-6.5119e-315
-5.33833e-314
3.36547e-315
1.62123e-314
2.5333e-315
4.17691e-316
6.49444e-317
9.33128e-318
1.54973e-318
7.31015e-319
4.79583e-318
3.6977e-317
2.2124e-316
3.77351e-316
-1.12757e-314
-1.20344e-313
-3.53447e-315
1.28522e-313
7.03845e-315
1.18305e-314
2.63782e-314
7.87728e-315
3.98106e-314
1.19379e-313
-5.34506e-314
-3.0963e-314
-1.14659e-313
-3.05306e-314
-9.63321e-314
1.06849e-314
1.05016e-313
1.40229e-314
1.0287e-313
-4.2627e-314
-1.27337e-313
-8.16753e-314
-2.65513e-313
-2.79022e-313
1.25464e-316
-7.48925e-314
-1.13307e-313
-3.18206e-314
-1.20065e-314
-6.87952e-314
5.21887e-314
-5.4881e-314
-2.45642e-314
9.73313e-314
6.17337e-313
3.31741e-313
1.44e-313
3.31799e-313
1.99487e-312
1.61897e-312
6.76377e-313
2.44908e-313
-1.80682e-313
1.40267e-313
3.83834e-313
6.74245e-313
4.35694e-313
4.42345e-313
3.10788e-313
2.20842e-313
8.38698e-314
-2.45014e-313
-3.05497e-313
-1.02028e-313
-3.55837e-313
-3.49783e-313
-5.00062e-313
-2.81569e-313
-3.90088e-313
-3.25322e-313
-2.43312e-313
-1.02451e-313
-1.10758e-313
-5.73712e-314
-6.26095e-314
4.6973e-314
8.65066e-314
-1.06148e-313
-2.56325e-314
-4.84717e-314
-1.58735e-314
-1.76007e-315
-1.4652e-316
-1.12644e-317
1.03259e-317
5.50773e-318
5.27359e-317
6.43393e-316
7.35355e-315
6.96228e-314
1.18321e-313
-4.00072e-314
1.2423e-313
7.51368e-314
1.81753e-314
9.08656e-314
1.00893e-313
7.07604e-314
-5.32139e-315
6.08392e-314
-3.26731e-314
1.43998e-314
-3.97262e-314
-1.63574e-315
4.04686e-316
1.58011e-314
-1.05465e-313
-2.97151e-315
-3.34069e-314
-9.96546e-316
-1.33851e-313
1.87724e-314
-1.39799e-313
-3.18474e-313
-2.14093e-313
-2.76356e-313
-2.21382e-313
-1.42614e-313
-1.60761e-313
-2.53e-313
-9.35641e-314
-2.45647e-313
-4.58102e-315
1.72197e-313
4.42614e-313
7.46553e-313
2.83655e-313
8.43718e-314
1.59416e-312
1.54426e-312
7.03251e-313
2.58106e-313
1.1706e-313
-8.84575e-314
2.27387e-313
1.37273e-313
9.8348e-314
5.70874e-314
1.95512e-313
1.18237e-313
1.23196e-314
1.40227e-314
7.05608e-314
1.84359e-314
-1.39084e-314
-3.94141e-313
-4.43981e-313
-4.77215e-313
-4.18765e-313
-3.64013e-313
-2.72974e-313
5.04089e-314
1.9978e-313
9.0553e-314
-2.04354e-314
2.1215e-314
-3.43563e-315
1.86229e-313
2.45444e-313
1.9029e-313
2.94496e-314
-1.12034e-314
2.37694e-315
5.08095e-316
5.27289e-316
3.7202e-317
-2.94692e-316
-2.02478e-315
-6.52303e-315
-3.22498e-314
-5.28848e-314
-3.36947e-315
-1.4343e-314
1.29473e-313
7.7485e-314
5.90744e-314
7.06034e-314
-8.09174e-314
-1.58219e-313
-2.68859e-314
-9.46788e-314
-1.12056e-313
-1.69082e-313
-2.17403e-313
-1.42978e-313
5.52182e-314
-3.13924e-314
-8.53113e-315
-7.04568e-314
-1.02461e-313
-1.65041e-313
-7.5812e-315
1.51637e-313
3.0299e-314
4.03719e-314
1.51547e-314
8.48935e-314
-6.228e-314
-4.04138e-314
1.35909e-313
-1.29963e-313
-1.96006e-313
5.53603e-314
1.20325e-313
8.74417e-315
2.82053e-313
-1.87726e-313
-1.25081e-312
2.00847e-312
1.28481e-312
8.15673e-313
9.76729e-313
2.84489e-313
-9.37972e-314
1.65896e-314
-8.09486e-314
-6.4719e-314
6.49707e-314
6.36193e-314
1.84085e-313
-2.26208e-313
-5.7154e-314
-1.67727e-313
-5.53388e-314
5.22327e-314
-2.17225e-313
-3.97703e-313
-4.99891e-313
-5.41452e-313
-3.19063e-313
-2.48527e-313
-2.14977e-313
3.00373e-313
2.11202e-313
7.36806e-314
-4.19306e-314
4.46348e-314
2.61047e-313
3.7832e-313
9.70141e-314
9.71028e-314
1.09495e-313
1.7985e-313
3.32691e-314
2.48773e-314
3.01539e-315
-4.62548e-315
-5.93792e-314
-1.26803e-313
9.18997e-314
1.02658e-313
1.25804e-313
1.88929e-313
1.70367e-313
-5.30904e-314
1.17592e-313
-7.44722e-314
-1.15954e-313
-1.92949e-313
-4.05809e-314
-2.71017e-314
2.65219e-315
-4.55921e-314
-1.54845e-313
-6.6585e-314
1.3211e-313
1.52467e-313
9.46145e-314
1.0023e-313
-6.67744e-314
-5.24783e-314
-2.02719e-313
-4.96444e-314
3.8989e-314
4.90618e-314
2.19064e-313
1.32207e-313
1.16325e-313
2.96551e-313
1.42479e-313
-2.31491e-313
-3.72253e-313
-4.4674e-313
-3.80016e-313
-3.21742e-313
-5.89634e-314
-4.84367e-313
-3.22971e-312
9.27944e-313
1.06123e-312
7.07975e-313
5.53317e-313
6.31662e-313
3.82646e-313
3.71352e-313
3.7915e-314
2.50492e-313
2.97443e-313
1.25793e-313
3.31111e-313
-2.12165e-313
-4.27277e-313
-4.60832e-313
-4.98816e-314
2.15493e-314
-9.20238e-314
-1.80003e-313
-3.68641e-313
-6.0765e-313
-3.93318e-313
-2.72589e-313
-1.78939e-313
2.94303e-314
2.74811e-313
3.05848e-313
1.29856e-313
-1.9846e-314
2.45881e-313
3.11546e-313
1.03751e-313
9.48268e-314
4.55658e-314
4.48878e-313
1.66163e-313
1.34411e-313
1.92976e-314
1.42378e-314
1.05715e-313
-1.00954e-313
5.27764e-315
-1.04026e-314
-6.32354e-314
-1.37966e-314
2.92456e-314
-7.35951e-314
-1.70004e-314
5.06636e-315
-2.20123e-313
-2.94039e-313
-4.587e-314
-6.16153e-314
-9.57656e-314
3.71151e-315
-3.331e-313
-7.70765e-314
-5.86093e-314
3.45986e-313
1.63371e-313
2.49526e-313
-5.41499e-315
-1.10778e-314
-7.19209e-315
-1.8357e-313
-1.67903e-313
-3.07518e-314
4.99799e-313
-2.35267e-314
2.40523e-313
4.51136e-313
3.97731e-313
-2.56152e-313
-4.58657e-313
-8.83251e-313
-8.42093e-313
2.21939e-314
-2.13317e-313
-1.22591e-312
-3.14537e-312
5.41493e-313
4.74091e-313
7.9388e-313
5.96784e-313
3.68278e-313
5.2336e-313
3.07202e-313
-1.10408e-313
-9.59249e-314
2.02248e-313
1.26515e-313
3.33127e-313
1.9057e-313
-3.41414e-313
-5.31788e-313
-4.15255e-313
-2.52368e-313
2.75705e-314
-3.20764e-313
-2.24862e-313
-4.06054e-313
-2.51733e-313
-2.3917e-313
-1.77779e-314
2.99933e-313
4.44845e-313
3.93917e-313
2.96933e-313
2.50551e-313
4.15644e-313
5.51703e-313
3.13312e-313
3.81024e-313
1.10706e-313
3.88536e-313
9.90729e-314
5.89367e-314
-1.14219e-313
7.7059e-314
4.24389e-314
8.52872e-314
1.30606e-313
1.49126e-314
-4.38404e-314
-2.68394e-314
-1.8075e-313
4.49516e-314
3.54308e-314
-8.31162e-315
-3.79627e-314
-2.57054e-313
-2.76375e-313
-1.50162e-313
-2.60256e-313
-1.88796e-313
-3.77385e-313
-1.09271e-313
1.68899e-314
4.12018e-313
1.85392e-313
2.92496e-313
-9.05669e-315
-2.78664e-314
-1.88492e-313
-2.13599e-314
-8.04617e-314
-2.08764e-313
1.65922e-313
-3.82874e-314
1.20335e-313
2.05877e-313
6.18391e-313
2.8409e-314
-4.28793e-313
-4.93749e-313
-7.7079e-313
1.0684e-313
5.19916e-313
-3.47324e-313
-2.57028e-312
1.82201e-312
1.10436e-312
9.89403e-313
-1.15385e-313
-2.65937e-313
1.53497e-313
1.18184e-314
-1.30255e-313
-1.53879e-313
1.97973e-313
3.27699e-313
2.18395e-313
2.56149e-313
-7.8313e-314
-1.85295e-313
-3.36237e-313
-2.38819e-313
2.05312e-313
-2.50921e-313
-3.04026e-313
-9.72717e-314
-1.61778e-313
-3.63287e-313
-7.55051e-314
4.23089e-313
5.24299e-313
4.34065e-313
3.53799e-313
2.17257e-313
3.88359e-313
5.28941e-313
3.58424e-313
4.86942e-313
4.29159e-313
4.64665e-313
2.02832e-313
4.33226e-314
-8.1612e-314
-4.58726e-314
8.43295e-314
9.56381e-314
1.14053e-313
-4.53015e-314
1.1283e-313
-4.79089e-314
-5.27363e-314
9.62683e-314
-6.18093e-314
3.92715e-314
-7.57258e-314
-3.42287e-313
-5.02207e-313
-8.10091e-314
-2.78669e-313
-1.26293e-313
-1.57886e-313
-9.34398e-314
-6.84325e-314
1.35943e-313
1.68675e-314
-8.85091e-315
3.81973e-314
-3.35863e-314
-5.39337e-313
-4.46728e-313
-3.14473e-313
-3.72229e-313
1.35038e-313
-7.08642e-314
8.64755e-315
-1.6373e-316
5.31673e-313
1.00405e-313
-4.46213e-313
-6.12714e-313
-9.75932e-313
-4.1795e-313
7.63054e-313
4.76167e-314
-1.09419e-312
1.39668e-312
1.05037e-312
1.12775e-312
6.13491e-313
2.09296e-313
4.06253e-314
5.57693e-314
-2.28739e-313
-4.10796e-313
-2.83608e-313
6.32711e-314
3.78382e-315
1.06755e-313
-1.05274e-313
-4.97464e-314
-2.74399e-313
-3.00038e-313
-1.33211e-313
-1.81904e-313
-1.86943e-313
-3.01011e-314
-1.30674e-313
-5.37025e-313
-9.62487e-315
2.17322e-313
3.34576e-313
3.31893e-313
2.41484e-313
1.79136e-313
1.47868e-313
6.41401e-313
5.40376e-313
6.21385e-313
3.36142e-313
5.95524e-313
4.16139e-313
2.85206e-313
9.69079e-315
-2.05871e-314
1.95646e-314
-3.48751e-314
-7.26898e-314
1.23961e-313
-7.67859e-314
-1.42279e-313
-1.1241e-313
-1.0499e-313
-1.63992e-313
-1.06014e-313
2.46089e-314
-3.45004e-313
-3.93483e-313
-2.44035e-313
-2.14877e-313
8.93332e-314
-1.88481e-313
-2.19417e-313
-1.05618e-313
-1.17856e-313
6.61704e-314
-1.59972e-313
-3.69907e-316
1.96007e-313
-4.57796e-313
-3.29653e-313
-1.41057e-313
-2.251e-313
2.8961e-313
1.65988e-313
1.41653e-313
-3.32363e-313
1.00569e-313
6.5062e-314
-4.68395e-313
-9.67161e-313
-1.12755e-312
-5.66116e-313
3.78217e-315
-9.61588e-314
-7.27898e-313
-7.22638e-314
5.36868e-313
1.02189e-312
4.23137e-313
4.18013e-313
-3.81483e-313
-3.46564e-313
-4.95164e-313
-8.32122e-313
-6.35346e-313
-1.94614e-313
8.98503e-314
7.29899e-314
1.47796e-313
1.71939e-313
-3.36341e-313
-4.07775e-313
-4.47035e-314
-2.2484e-313
-5.57681e-313
-1.76482e-313
-1.99747e-313
-5.96813e-313
-1.12614e-313
2.78023e-313
2.80892e-313
5.52921e-313
3.63854e-313
1.26132e-313
1.25422e-313
5.28099e-313
8.62612e-313
1.00006e-312
4.35969e-313
7.6312e-313
4.80475e-313
1.08005e-313
1.21263e-313
1.08543e-313
1.58609e-315
-6.84767e-314
-8.03112e-314
9.85548e-314
-8.58399e-314
-3.33959e-313
-5.70221e-314
-5.09768e-314
-1.46488e-313
-2.13418e-315
-7.36568e-314
-1.12069e-313
-3.93899e-313
-2.89047e-313
-2.618e-313
-1.44733e-313
-1.88906e-313
-1.32325e-313
-9.21023e-315
-2.10451e-313
-1.29097e-313
-1.9935e-313
-2.48318e-313
1.65629e-314
-3.75628e-313
-3.57167e-313
-3.27536e-313
-2.23113e-313
3.16518e-313
2.70229e-313
1.68804e-313
-4.75763e-313
-2.82539e-313
-3.60831e-313
-6.23134e-313
-1.3452e-312
-1.42643e-312
-9.74548e-313
-7.70315e-313
-1.14433e-312
-1.50103e-312
1.07202e-312
-6.32683e-313
5.77441e-313
1.43373e-313
5.47106e-313
-3.23013e-313
-2.59468e-315
-4.77231e-313
-6.41899e-313
-2.30617e-313
-1.70315e-314
1.09728e-313
3.41643e-314
3.54626e-313
1.7982e-313
-2.61191e-313
-3.9111e-313
-3.00144e-313
-2.67904e-313
-5.45597e-313
-3.30725e-313
-3.4307e-313
-5.13247e-313
-2.19075e-313
4.82216e-314
2.2394e-313
1.17942e-313
3.16121e-313
1.52197e-313
-9.28448e-314
3.00813e-313
6.02558e-313
1.0539e-312
7.2318e-313
7.82569e-313
5.35224e-313
2.82318e-313
1.25318e-313
-1.35534e-313
-6.85403e-314
7.82731e-314
-9.36267e-314
-3.54792e-314
-1.17648e-313
-1.1846e-313
5.61001e-314
4.62926e-314
-9.10988e-314
6.44747e-315
-9.73439e-315
-9.28429e-314
-1.99109e-313
-1.84393e-313
-2.63083e-313
-2.03661e-313
2.59428e-314
-5.77164e-314
-1.25238e-313
-2.53539e-313
-2.16435e-313
-3.8976e-313
-3.58179e-313
-3.60989e-314
-2.86751e-313
-3.06185e-313
-1.69649e-313
-3.59496e-313
-8.75301e-314
1.54247e-313
4.10638e-313
-3.97762e-314
1.6052e-314
-6.26176e-313
-6.42367e-313
-1.24433e-312
-9.62479e-313
-9.04258e-313
-5.84713e-313
-1.28502e-312
-2.36698e-312
9.6874e-313
7.80835e-313
4.22732e-313
1.37057e-313
-3.17753e-313
-3.96196e-313
3.78737e-314
8.05128e-314
-1.78139e-313
-3.71829e-313
-2.72105e-313
-1.40813e-313
1.56047e-313
1.43443e-313
-1.72563e-313
-2.68678e-313
-2.7709e-313
-1.81525e-313
-4.31758e-315
-5.48092e-313
-5.94796e-313
-4.61525e-313
-6.18954e-313
-3.14909e-313
-1.26931e-313
-1.37885e-315
-3.28693e-313
1.14084e-313
-1.03283e-313
-2.27575e-313
1.89074e-313
4.72378e-313
1.03493e-312
5.60711e-313
6.85741e-313
5.27922e-313
3.40623e-313
1.64276e-314
-1.68496e-313
-1.44471e-315
-4.25537e-314
-7.32307e-314
1.15355e-313
-6.64645e-314
-1.40967e-313
-1.40475e-313
-1.18564e-313
-1.1181e-313
-1.24314e-314
1.39684e-313
-6.51592e-314
-9.51848e-315
-3.98187e-314
1.77464e-314
3.88237e-314
1.79311e-313
1.69274e-313
3.65242e-314
-7.92882e-314
-9.01453e-314
-1.24455e-313
-3.63451e-313
-2.76505e-314
-4.38199e-313
-1.82426e-313
-4.34529e-314
-8.81639e-314
8.77737e-314
1.48875e-313
2.52981e-313
1.13944e-313
1.05366e-313
-3.71503e-313
-3.99435e-313
-9.44402e-313
-1.33158e-312
-1.47883e-312
-1.02588e-312
-2.69668e-312
-3.65413e-312
1.20798e-313
6.04878e-313
2.52477e-313
-3.1375e-313
-8.62586e-313
-3.63303e-313
1.21584e-313
1.3745e-313
2.16941e-313
1.58208e-313
-1.98369e-313
-3.58051e-314
6.60613e-314
-7.75114e-314
-2.32161e-313
-3.5629e-313
-2.9276e-313
-3.41221e-313
1.65499e-313
-5.19248e-313
-5.71139e-313
-4.23201e-313
-6.04549e-313
-3.68999e-313
-1.71461e-313
-4.39873e-314
-4.71599e-313
2.51658e-313
-1.44319e-313
-3.58515e-313
-2.97478e-314
2.98166e-313
8.3103e-313
6.99126e-313
6.31617e-313
4.09786e-313
1.73062e-313
5.42407e-314
-4.59949e-314
-3.08735e-314
7.06273e-314
1.70586e-313
1.21382e-313
-6.43914e-315
-2.54518e-314
-6.54461e-314
-2.60741e-313
-2.57484e-313
-1.00499e-313
3.16782e-313
-2.66207e-314
9.81679e-314
-2.73324e-313
-7.46982e-314
-1.31893e-313
1.0289e-313
4.50462e-314
3.53591e-314
-1.21877e-313
-3.73228e-313
-3.41887e-313
-4.3734e-313
-4.92057e-314
-4.55798e-313
-2.49073e-313
2.53032e-314
4.64393e-314
-1.45414e-313
7.41038e-314
1.42745e-313
1.50644e-313
-7.29854e-314
-6.06692e-313
-3.0869e-313
-4.7428e-313
-6.0301e-313
-1.48653e-312
-1.80628e-312
-3.11088e-312
-3.83351e-312
1.21062e-312
5.1883e-313
1.13616e-312
-8.53731e-313
-1.23552e-312
-8.38804e-313
-1.73664e-313
1.23698e-313
1.50177e-313
3.11938e-313
1.63342e-313
-1.65302e-314
3.26256e-314
-4.66078e-315
-1.20076e-313
-4.60901e-313
-7.03578e-313
-4.81132e-313
3.20935e-315
-3.6615e-313
-5.16128e-313
-5.31048e-313
-6.79876e-313
-4.86582e-313
-4.11349e-313
-6.04914e-314
-2.78864e-313
2.84227e-313
-1.11967e-314
-4.62457e-313
-3.64864e-313
1.80672e-313
3.94258e-313
4.19172e-313
5.85033e-313
4.50196e-313
3.61769e-313
1.74951e-313
-1.7764e-313
-1.90266e-313
-5.16859e-314
1.97255e-313
-2.88694e-314
-5.26005e-314
-2.36734e-313
-1.49889e-313
-3.77409e-313
-4.3288e-313
-5.93841e-314
3.26114e-314
-9.54265e-316
1.27123e-314
-4.35667e-314
-2.30215e-313
-1.53392e-313
-2.38475e-314
1.08963e-314
9.19044e-315
-2.8165e-313
-4.73994e-313
-3.33133e-313
-5.06194e-313
-3.92012e-314
-1.96266e-313
-1.30466e-313
9.77267e-314
1.80235e-313
1.37411e-313
2.71391e-313
3.15315e-313
1.10585e-313
-1.78893e-313
-2.73684e-313
-2.56684e-313
-4.26333e-313
-5.02429e-313
-3.26813e-313
-5.07063e-313
-2.20016e-312
-1.77466e-312
4.95246e-313
6.28876e-313
4.42233e-313
-1.04565e-312
-1.20888e-312
-1.08552e-312
-4.94048e-313
7.7869e-314
3.6525e-313
6.55248e-314
4.29343e-313
2.01065e-314
-7.20758e-314
-1.77817e-313
-2.1526e-313
-5.90371e-313
-6.63523e-313
-2.55851e-313
-8.05676e-314
-3.96884e-313
-3.30725e-313
-4.15497e-313
-7.7398e-313
-7.89353e-313
-5.63364e-313
3.62175e-314
-5.03675e-314
2.95197e-313
3.7711e-314
-3.192e-313
-4.80877e-313
6.82327e-315
1.31276e-313
8.70589e-314
5.35033e-313
4.03525e-313
1.74016e-313
2.79759e-313
-2.29625e-314
-2.78729e-314
1.55446e-313
2.65936e-313
8.11977e-314
-1.89128e-313
-1.75933e-313
-2.47101e-313
-3.5394e-313
-5.5307e-313
-2.52486e-313
-8.30835e-314
5.12454e-314
1.43504e-313
-2.31046e-313
-2.84004e-313
-6.40063e-314
1.19209e-313
-2.08125e-314
2.78247e-314
-3.04745e-313
-3.24453e-313
-5.87645e-313
-6.3962e-313
-3.47822e-313
-3.33603e-313
-1.41572e-313
-2.10692e-314
-2.20543e-313
-9.78977e-314
2.83042e-313
3.48585e-313
7.17016e-314
-1.73555e-313
1.23291e-313
1.46347e-313
8.83336e-314
9.54732e-313
6.22169e-313
8.85973e-313
3.144e-313
7.14894e-313
1.58293e-312
7.76284e-313
-2.8837e-313
-2.92369e-313
-4.81786e-313
-8.97832e-313
-9.02836e-313
1.83568e-313
2.00927e-313
3.89981e-314
6.19601e-313
2.11757e-313
4.66153e-314
-2.56221e-313
-1.17925e-313
-7.62333e-313
-8.096e-313
-2.9398e-313
2.51365e-314
-2.63243e-313
-2.06371e-313
-2.79898e-313
-7.8091e-313
-8.37659e-313
-7.03393e-313
9.85968e-314
1.07434e-313
2.91582e-313
9.00335e-314
-2.15244e-313
-3.65799e-313
2.46556e-313
1.55672e-314
1.1673e-313
3.12449e-313
2.11378e-313
9.27102e-314
1.99726e-313
1.47046e-313
-2.37807e-314
-3.86473e-314
1.16561e-313
2.74536e-313
2.29022e-315
-3.2762e-314
-5.51605e-314
-3.89105e-313
-6.66322e-313
-3.05021e-313
-4.86778e-314
-2.25041e-313
2.09322e-313
-1.6525e-313
-2.50557e-314
2.0738e-316
6.89126e-314
1.88013e-313
1.40434e-313
-3.22017e-314
-1.13056e-313
-5.71013e-313
-6.26641e-313
-8.33682e-314
-1.79317e-314
5.97221e-314
1.66995e-313
-1.73003e-313
-1.23784e-313
2.05881e-313
3.07761e-313
-1.79658e-314
3.81409e-313
4.85292e-313
5.224e-313
-3.37846e-313
-1.16873e-313
-2.59933e-313
2.43373e-313
-4.93768e-313
4.24648e-314
3.37955e-312
1.51992e-312
2.01355e-312
5.47101e-313
-7.68523e-313
-1.00385e-312
-1.20921e-312
1.73164e-313
1.29559e-313
3.29182e-314
4.8509e-313
3.42223e-313
1.40452e-313
-1.52853e-313
-1.36936e-313
-6.35757e-313
-9.6542e-313
-3.68643e-313
9.97565e-315
-2.20359e-313
-3.05903e-313
-8.63816e-314
-7.77597e-313
-8.5695e-313
-5.50555e-313
-4.86022e-314
5.72188e-314
4.18637e-313
1.18665e-313
-4.26118e-313
-2.74695e-313
7.2984e-314
-2.37682e-314
5.57037e-314
1.39486e-313
9.80526e-314
1.0872e-313
1.06377e-313
-3.65341e-314
-4.30583e-314
-1.66877e-313
-3.60364e-314
7.83599e-314
6.00194e-314
1.39043e-313
-1.44678e-313
-4.05851e-313
-8.65887e-313
-2.11781e-313
-5.78058e-314
-2.43333e-313
-4.44779e-314
-6.86671e-314
1.64916e-313
-1.64811e-314
-2.87646e-315
8.06088e-314
1.35481e-313
-1.61523e-313
-1.07733e-313
-5.65435e-313
-8.23029e-313
-2.77143e-315
2.24337e-313
8.86858e-314
2.65977e-313
1.34644e-313
-1.73209e-314
-1.06171e-314
3.0278e-313
-2.53309e-313
3.06629e-313
2.46293e-313
-4.75372e-315
-5.76049e-313
-6.51632e-313
-1.14318e-312
-1.94472e-312
-1.14375e-312
1.27513e-313
-2.29932e-313
8.47273e-313
1.2826e-312
8.78752e-313
-3.22762e-313
-8.41238e-313
-7.59287e-313
-3.2493e-313
2.16161e-313
3.2265e-314
5.3678e-313
3.00508e-313
2.56453e-313
6.95303e-314
-1.61392e-313
-4.88531e-313
-9.58653e-313
-4.42557e-313
3.91737e-314
-4.12933e-313
-1.30756e-313
-1.75857e-313
-6.34576e-313
-8.63294e-313
-6.45809e-313
-1.71958e-313
-1.34013e-313
4.6339e-313
1.12411e-313
-4.24038e-313
-3.09042e-313
-2.60564e-313
-3.76122e-314
6.98983e-314
-1.89657e-313
1.27298e-313
3.39477e-314
3.21113e-313
3.16504e-313
-8.18223e-314
1.55033e-315
7.2198e-314
6.04238e-314
-1.32276e-313
-2.4275e-314
-7.40798e-315
-3.23988e-313
-7.78487e-313
-3.16541e-313
-2.09539e-313
-2.82002e-313
-2.07873e-313
-7.47848e-314
-2.41903e-314
-3.48169e-314
-4.91647e-314
4.14565e-314
-6.04377e-314
-1.11422e-314
-2.56453e-314
-3.92786e-313
-8.49968e-313
-2.28047e-313
-7.83854e-314
1.69809e-313
3.87888e-313
1.3726e-313
-2.02605e-313
1.5495e-314
2.144e-313
1.09975e-313
-1.22682e-313
-1.89825e-313
-3.79971e-313
-4.28825e-313
-2.28216e-313
-3.8013e-313
-1.02624e-312
-1.01857e-312
2.85516e-313
-4.52674e-313
-2.64918e-313
7.56435e-313
1.28828e-313
-4.57295e-313
-1.05757e-312
-3.96865e-313
-3.63851e-313
-1.37702e-313
2.66069e-313
6.51997e-313
2.35312e-313
-2.32488e-314
-2.4328e-313
-1.58404e-313
-4.72068e-313
-1.00432e-312
-5.07927e-313
-3.11192e-313
-2.46623e-313
-1.07377e-313
-2.71123e-314
-4.30434e-313
-5.46037e-313
-6.04959e-313
-4.15464e-313
-1.97095e-313
4.14621e-313
2.78769e-313
-4.57305e-313
-6.03738e-313
-5.17999e-313
-2.67807e-313
-7.36493e-314
-4.1255e-313
-1.84115e-313
1.27604e-313
4.50104e-313
3.25128e-313
6.91749e-314
1.92362e-315
1.35529e-313
2.60437e-313
-1.41141e-313
-1.74536e-313
-1.53591e-313
-2.57274e-313
-6.63752e-313
-3.17058e-313
-2.98522e-313
-4.18053e-313
-6.79457e-314
-1.19037e-313
2.38366e-314
1.82085e-314
1.90608e-313
-6.78887e-314
-1.85777e-313
-5.87471e-314
6.63822e-314
-3.06771e-313
-7.3973e-313
-3.2948e-313
9.97848e-314
3.51419e-313
1.30132e-313
2.0893e-313
-2.40015e-313
-1.03532e-313
8.84964e-314
1.20701e-314
-2.10316e-313
-2.95144e-313
9.08857e-314
-1.97617e-313
-2.63104e-314
4.62074e-314
1.38545e-312
1.97317e-312
3.40178e-312
1.74336e-312
7.98635e-313
7.96583e-313
5.18929e-313
-3.71907e-313
-1.17993e-312
-9.70439e-313
-2.79667e-313
-2.21485e-313
1.72169e-313
4.41563e-313
5.69521e-313
2.56311e-313
-1.73898e-313
-4.31186e-313
-5.36434e-313
-9.01094e-313
-6.36678e-313
-4.74216e-314
-1.65e-313
-1.00593e-313
1.23578e-313
-3.31216e-313
-5.08651e-313
-4.37705e-313
-2.66938e-313
-1.81161e-313
2.1691e-313
5.55598e-314
-3.8033e-313
-6.72992e-313
-6.87007e-313
-7.82273e-313
2.57647e-314
-6.76018e-313
-4.07469e-313
4.46593e-314
5.3199e-313
3.02848e-313
2.71665e-313
-9.06726e-314
8.89005e-314
1.78045e-313
-2.8593e-313
-3.31897e-313
-3.88503e-313
-4.84435e-313
-6.9573e-313
-3.68166e-313
-3.74136e-313
-2.85849e-313
-1.84471e-313
-1.46573e-313
-1.23835e-314
1.65572e-313
3.68347e-313
1.46014e-313
-1.12336e-313
-1.66212e-313
3.74361e-314
-1.90527e-313
-6.19371e-313
-4.69764e-313
-2.53463e-313
1.95402e-313
3.44385e-313
3.38486e-313
3.94922e-314
-2.12249e-313
-5.09221e-314
-1.57509e-313
1.61574e-314
-2.24611e-314
3.12809e-313
7.7511e-314
2.03365e-313
7.90167e-313
2.18873e-312
2.50537e-312
4.00951e-312
2.94547e-312
9.9645e-313
1.19871e-312
1.08292e-312
5.12539e-313
-6.18238e-313
-5.78734e-313
-4.47257e-313
-3.45099e-313
5.19515e-314
7.25518e-313
9.81328e-313
2.83365e-313
-1.08029e-314
-2.60156e-313
-4.85268e-313
-7.66706e-313
-8.05876e-313
9.40279e-314
1.04056e-313
-3.84359e-313
3.67246e-314
-2.74185e-313
-5.088e-313
-4.75651e-313
-2.78077e-313
-8.10945e-314
1.36665e-313
-4.85191e-314
-3.91782e-313
-6.66537e-313
-9.68202e-313
-5.43995e-313
3.93394e-314
-7.71373e-313
-3.39041e-313
-8.25655e-314
5.63509e-313
3.45833e-313
3.05443e-313
1.33244e-313
2.92969e-314
3.49272e-314
-2.43201e-313
-7.98372e-314
-6.07269e-313
-6.08645e-313
-9.09353e-313
-5.58704e-313
-4.96752e-313
-3.52351e-313
-3.01094e-313
-2.44608e-313
4.0268e-314
2.39737e-313
2.47114e-313
-5.71062e-315
-1.88185e-313
-1.68815e-313
2.11279e-313
-1.51e-313
-3.78629e-313
-3.94581e-313
-2.33529e-313
1.32935e-313
1.48128e-313
-8.44647e-314
-4.53756e-313
-1.03489e-313
-1.91646e-314
-2.86175e-313
2.28051e-313
-1.04347e-313
-1.57987e-313
1.41269e-313
3.33058e-313
2.67939e-313
1.29954e-312
1.10659e-312
2.89356e-312
2.78126e-312
2.74154e-312
2.28501e-312
1.32344e-312
9.69714e-313
2.48969e-313
-2.85598e-315
-6.21084e-313
-4.95383e-313
-1.67843e-313
8.07416e-313
9.68234e-313
1.82152e-313
-1.5624e-313
-1.48844e-313
-3.96883e-313
-6.63085e-313
-1.0633e-312
-2.58012e-313
9.61928e-314
-2.28016e-313
-1.30353e-313
-1.78081e-313
-2.8829e-313
-4.09764e-313
-2.1711e-313
-2.79918e-314
6.01382e-314
-3.83106e-314
-1.39676e-313
-4.62413e-313
-7.98662e-313
-7.32425e-313
7.09058e-315
-9.08622e-313
-5.15281e-313
-9.50657e-314
4.06969e-313
2.33524e-313
3.30699e-313
6.83986e-314
2.04636e-314
-1.61404e-313
-3.33204e-313
-1.40485e-313
-6.98488e-313
-5.38314e-313
-7.10909e-313
-7.7259e-313
-4.93586e-313
-5.73739e-313
-4.96394e-313
-3.6593e-313
1.27663e-313
2.14495e-313
1.63908e-313
1.3493e-313
7.83745e-315
-3.1989e-313
-2.23764e-314
1.79604e-313
-7.1e-314
-4.94731e-313
-4.79697e-313
1.13008e-313
2.74216e-313
9.15242e-314
-4.53558e-313
8.90835e-314
1.3243e-315
-3.39703e-313
-2.09297e-313
-3.85653e-313
-3.15502e-313
-5.13247e-313
1.29493e-313
-2.54147e-313
3.12246e-313
-4.74011e-314
3.6943e-313
2.62786e-312
3.21233e-312
2.43334e-312
2.41827e-312
1.25454e-312
1.06128e-312
3.97913e-313
7.52252e-314
-3.61803e-313
-4.33891e-313
6.91417e-313
1.11369e-312
3.71854e-313
1.8738e-314
-1.58166e-313
-6.37991e-313
-7.98757e-313
-9.8535e-313
-5.19647e-313
-2.49548e-313
-1.40387e-313
2.64588e-314
-6.40457e-314
-2.89228e-313
-5.50822e-313
-2.9702e-313
3.40794e-314
1.44347e-313
6.83371e-314
-2.59877e-313
-5.3782e-313
-7.75135e-313
-1.04179e-312
1.02307e-313
-9.99061e-313
-6.34132e-313
-3.0197e-314
3.25324e-313
1.12661e-313
4.22793e-313
1.59736e-313
2.62322e-314
-1.39774e-313
-4.81324e-313
-7.59903e-314
-5.61055e-313
-4.13339e-313
-5.94951e-313
-6.97687e-313
-3.78953e-313
-6.53272e-313
-4.97856e-313
-4.9236e-313
-1.57927e-313
2.48191e-313
1.94105e-313
-7.96001e-314
-4.93262e-314
-1.41133e-313
-2.97468e-313
2.37105e-313
2.42313e-315
-5.8849e-313
-5.68702e-313
-2.07754e-313
4.15816e-315
4.10942e-314
-3.4521e-313
9.62262e-314
-2.34238e-313
-3.21198e-313
-8.0762e-313
-7.77098e-313
-6.82784e-313
-6.03812e-313
-1.95781e-313
-8.79942e-313
-1.62889e-312
-1.0303e-312
-1.81674e-313
1.91361e-312
3.51593e-312
4.17262e-312
3.10798e-312
1.44454e-312
1.08546e-312
8.10576e-313
9.39887e-313
1.31763e-312
4.39084e-313
9.48389e-313
1.30799e-312
5.15292e-313
-3.82522e-314
-3.18064e-313
-5.3501e-313
-5.35186e-313
-1.18894e-312
-7.72567e-313
2.91642e-314
-1.49494e-314
-3.49513e-314
-1.02129e-313
-2.85407e-313
-3.16424e-313
-1.67794e-313
-5.39723e-314
2.21852e-313
1.16704e-313
-3.06266e-313
-7.03007e-313
-9.78039e-313
-1.27994e-312
-1.30422e-313
-1.22853e-312
-6.27734e-313
-1.29598e-314
1.65477e-313
2.3283e-313
4.9556e-313
1.53041e-313
-2.03036e-315
-2.37626e-314
-3.32593e-313
-1.41839e-313
-3.3806e-313
-5.25589e-313
-8.12769e-313
-8.46874e-313
-2.87023e-313
-4.17034e-313
-3.56759e-313
-6.6812e-313
-4.59171e-313
2.43373e-313
-2.03723e-314
-1.10034e-313
5.02319e-314
-7.63698e-314
-2.61031e-313
-1.28561e-313
-2.30124e-313
-7.31271e-313
-5.98196e-313
-5.85111e-313
-1.67072e-313
-2.3021e-313
-8.26346e-314
-2.91829e-313
-4.04215e-313
-4.44466e-313
-8.89392e-313
-6.39355e-313
-6.94123e-313
-1.15401e-312
-1.07974e-312
-1.09807e-312
-8.17294e-313
-1.10659e-312
2.2482e-313
-1.32788e-312
1.08689e-313
2.79736e-312
3.1927e-312
2.1391e-312
2.11238e-312
1.82767e-312
1.55076e-312
1.59343e-312
1.13764e-312
1.42788e-312
1.32526e-312
8.06797e-313
-2.32011e-314
-1.24351e-313
-3.13739e-313
-2.1196e-313
-9.33692e-313
-1.09796e-312
-2.73226e-313
1.0413e-313
-1.20565e-313
-6.12273e-314
-4.40982e-313
-1.75895e-313
-2.8487e-313
-2.63058e-313
3.40313e-313
9.88186e-314
-3.00954e-314
-5.4001e-313
-8.98155e-313
-1.46308e-312
-3.99081e-313
-8.89065e-313
-7.05777e-313
-2.24276e-313
1.92177e-313
2.399e-313
3.5468e-313
1.60515e-313
3.57386e-314
9.43341e-314
-3.61929e-313
-9.2491e-314
-3.59363e-313
-5.27898e-313
-7.19871e-313
-8.96827e-313
-4.19004e-313
-5.94055e-313
-3.69748e-313
-7.31978e-313
-5.29994e-313
-2.90265e-314
6.17248e-314
-1.41355e-313
2.83531e-313
8.21497e-314
2.76812e-315
1.14121e-313
2.31054e-314
-5.02538e-313
-3.99982e-313
-6.46296e-313
-5.63939e-313
-6.23446e-313
-5.74319e-313
-7.17737e-313
-8.33378e-313
-5.17741e-313
-7.92876e-313
-9.80625e-313
-4.63758e-313
-1.07216e-312
-1.61225e-312
-1.12671e-312
-6.20284e-313
-1.5397e-312
1.20255e-312
-4.08631e-312
-2.24655e-312
5.81376e-313
2.05913e-312
1.85354e-312
2.44458e-312
1.51951e-312
1.33116e-312
1.85522e-312
1.09577e-312
1.94342e-312
1.70948e-312
1.11197e-312
3.59486e-313
-9.95573e-314
-3.51433e-313
-1.79776e-313
-7.95888e-313