/*--------------------------------*- C++ -*----------------------------------*\
  =========                 |
  \\      /  F ield         | OpenFOAM: The Open Source CFD Toolbox
   \\    /   O peration     | Website:  https://openfoam.org
    \\  /    A nd           | Version:  11
     \\/     M anipulation  |
\*---------------------------------------------------------------------------*/
FoamFile
{
    format      ascii;
    class       volScalarField;
    location    "622";
    object      p;
}
// * * * * * * * * * * * * * * * * * * * * * * * * * * * * * * * * * * * * * //

dimensions      [0 2 -2 0 0 0 0];

internalField   nonuniform List<scalar> 
427520
(
5.48075
5.43643
5.40558
5.38806
5.37659
5.36822
5.362
5.35737
5.35385
5.35114
5.349
5.34729
5.3459
5.34476
5.3438
5.34298
5.34228
5.34168
5.34116
5.3407
5.3403
5.33994
5.33962
5.33934
5.33909
5.33887
5.33867
5.33849
5.33834
5.3382
5.33808
5.33797
5.33788
5.3378
5.33773
5.33768
5.33763
5.3376
5.33758
5.33757
5.33757
5.33758
5.3376
5.33763
5.33768
5.33773
5.3378
5.33788
5.33797
5.33808
5.3382
5.33834
5.33849
5.33867
5.33887
5.33909
5.33934
5.33962
5.33994
5.3403
5.3407
5.34116
5.34168
5.34228
5.34298
5.3438
5.34476
5.3459
5.34729
5.349
5.35114
5.35385
5.35737
5.362
5.36822
5.37659
5.38806
5.40558
5.43643
5.48075
5.3837
5.3807
5.37625
5.37143
5.36681
5.36263
5.35901
5.35592
5.35332
5.35113
5.34929
5.34773
5.34641
5.34528
5.34432
5.34348
5.34275
5.34212
5.34157
5.34108
5.34065
5.34027
5.33993
5.33962
5.33936
5.33912
5.3389
5.33871
5.33854
5.33839
5.33826
5.33815
5.33805
5.33796
5.33789
5.33783
5.33779
5.33775
5.33773
5.33772
5.33772
5.33773
5.33775
5.33779
5.33783
5.33789
5.33796
5.33805
5.33815
5.33826
5.33839
5.33854
5.33871
5.3389
5.33912
5.33936
5.33962
5.33993
5.34027
5.34065
5.34108
5.34157
5.34212
5.34275
5.34348
5.34432
5.34528
5.34641
5.34773
5.34929
5.35113
5.35332
5.35592
5.35901
5.36263
5.36681
5.37143
5.37625
5.3807
5.3837
5.35907
5.36114
5.36213
5.36127
5.35952
5.3575
5.35545
5.35349
5.35169
5.35006
5.34861
5.34732
5.34619
5.34519
5.34431
5.34353
5.34284
5.34224
5.3417
5.34122
5.34079
5.34041
5.34007
5.33976
5.33949
5.33925
5.33903
5.33884
5.33866
5.33851
5.33838
5.33826
5.33816
5.33807
5.33799
5.33793
5.33789
5.33785
5.33783
5.33782
5.33782
5.33783
5.33785
5.33789
5.33793
5.33799
5.33807
5.33816
5.33826
5.33838
5.33851
5.33866
5.33884
5.33903
5.33925
5.33949
5.33976
5.34007
5.34041
5.34079
5.34122
5.3417
5.34224
5.34284
5.34353
5.34431
5.34519
5.34619
5.34732
5.34861
5.35006
5.35169
5.35349
5.35545
5.3575
5.35952
5.36127
5.36213
5.36114
5.35907
5.35007
5.35209
5.35356
5.35385
5.3534
5.35258
5.35157
5.35047
5.34935
5.34826
5.34723
5.34628
5.3454
5.34459
5.34386
5.3432
5.3426
5.34206
5.34157
5.34113
5.34073
5.34038
5.34006
5.33977
5.3395
5.33927
5.33906
5.33887
5.3387
5.33855
5.33842
5.3383
5.3382
5.33811
5.33804
5.33798
5.33793
5.3379
5.33787
5.33786
5.33786
5.33787
5.3379
5.33793
5.33798
5.33804
5.33811
5.3382
5.3383
5.33842
5.33855
5.3387
5.33887
5.33906
5.33927
5.3395
5.33977
5.34006
5.34038
5.34073
5.34113
5.34157
5.34206
5.3426
5.3432
5.34386
5.34459
5.3454
5.34628
5.34723
5.34826
5.34935
5.35047
5.35157
5.35258
5.3534
5.35385
5.35356
5.35209
5.35007
5.3451
5.34667
5.34799
5.34864
5.34877
5.34859
5.34818
5.34764
5.34701
5.34634
5.34566
5.34499
5.34435
5.34374
5.34317
5.34263
5.34214
5.34168
5.34127
5.34088
5.34053
5.34021
5.33992
5.33966
5.33942
5.3392
5.339
5.33882
5.33866
5.33852
5.3384
5.33829
5.33819
5.33811
5.33803
5.33798
5.33793
5.3379
5.33787
5.33786
5.33786
5.33787
5.3379
5.33793
5.33798
5.33803
5.33811
5.33819
5.33829
5.3384
5.33852
5.33866
5.33882
5.339
5.3392
5.33942
5.33966
5.33992
5.34021
5.34053
5.34088
5.34127
5.34168
5.34214
5.34263
5.34317
5.34374
5.34435
5.34499
5.34566
5.34634
5.34701
5.34764
5.34818
5.34859
5.34877
5.34864
5.34799
5.34667
5.3451
5.34217
5.34333
5.34441
5.34508
5.34541
5.34551
5.34543
5.34521
5.34489
5.34451
5.34409
5.34365
5.3432
5.34276
5.34233
5.34192
5.34154
5.34117
5.34083
5.34051
5.34021
5.33994
5.33968
5.33945
5.33924
5.33904
5.33886
5.3387
5.33856
5.33843
5.33831
5.33821
5.33812
5.33804
5.33798
5.33792
5.33788
5.33785
5.33783
5.33782
5.33782
5.33783
5.33785
5.33788
5.33792
5.33798
5.33804
5.33812
5.33821
5.33831
5.33843
5.33856
5.3387
5.33886
5.33904
5.33924
5.33945
5.33968
5.33994
5.34021
5.34051
5.34083
5.34117
5.34154
5.34192
5.34233
5.34276
5.3432
5.34365
5.34409
5.34451
5.34489
5.34521
5.34543
5.34551
5.34541
5.34508
5.34441
5.34333
5.34217
5.34025
5.34111
5.34195
5.34255
5.34293
5.34314
5.34321
5.34318
5.34305
5.34285
5.34261
5.34234
5.34205
5.34175
5.34144
5.34114
5.34085
5.34057
5.3403
5.34004
5.3398
5.33957
5.33936
5.33916
5.33898
5.33881
5.33866
5.33852
5.33839
5.33827
5.33817
5.33808
5.338
5.33793
5.33787
5.33782
5.33778
5.33775
5.33773
5.33772
5.33772
5.33773
5.33775
5.33778
5.33782
5.33787
5.33793
5.338
5.33808
5.33817
5.33827
5.33839
5.33852
5.33866
5.33881
5.33898
5.33916
5.33936
5.33957
5.3398
5.34004
5.3403
5.34057
5.34085
5.34114
5.34144
5.34175
5.34205
5.34234
5.34261
5.34285
5.34305
5.34318
5.34321
5.34314
5.34293
5.34255
5.34195
5.34111
5.34025
5.33886
5.33952
5.34018
5.34069
5.34105
5.34129
5.34144
5.3415
5.34148
5.34141
5.34129
5.34113
5.34095
5.34076
5.34055
5.34034
5.34013
5.33992
5.33971
5.33951
5.33932
5.33914
5.33897
5.33881
5.33866
5.33852
5.33839
5.33827
5.33816
5.33806
5.33798
5.3379
5.33783
5.33777
5.33771
5.33767
5.33764
5.33761
5.3376
5.33759
5.33759
5.3376
5.33761
5.33764
5.33767
5.33771
5.33777
5.33783
5.3379
5.33798
5.33806
5.33816
5.33827
5.33839
5.33852
5.33866
5.33881
5.33897
5.33914
5.33932
5.33951
5.33971
5.33992
5.34013
5.34034
5.34055
5.34076
5.34095
5.34113
5.34129
5.34141
5.34148
5.3415
5.34144
5.34129
5.34105
5.34069
5.34018
5.33952
5.33886
5.3378
5.33832
5.33884
5.33926
5.33959
5.33983
5.34
5.34011
5.34015
5.34015
5.34011
5.34004
5.33994
5.33982
5.33969
5.33955
5.3394
5.33925
5.3391
5.33895
5.33881
5.33867
5.33854
5.33841
5.33829
5.33818
5.33808
5.33798
5.33789
5.33781
5.33773
5.33767
5.33761
5.33756
5.33751
5.33748
5.33745
5.33743
5.33741
5.33741
5.33741
5.33741
5.33743
5.33745
5.33748
5.33751
5.33756
5.33761
5.33767
5.33773
5.33781
5.33789
5.33798
5.33808
5.33818
5.33829
5.33841
5.33854
5.33867
5.33881
5.33895
5.3391
5.33925
5.3394
5.33955
5.33969
5.33982
5.33994
5.34004
5.34011
5.34015
5.34015
5.34011
5.34
5.33983
5.33959
5.33926
5.33884
5.33832
5.3378
5.33696
5.33737
5.33779
5.33814
5.33843
5.33865
5.33883
5.33895
5.33903
5.33907
5.33908
5.33906
5.33901
5.33895
5.33887
5.33878
5.33869
5.33859
5.33849
5.33838
5.33828
5.33818
5.33808
5.33798
5.33789
5.33781
5.33772
5.33765
5.33758
5.33751
5.33745
5.3374
5.33735
5.33731
5.33728
5.33725
5.33722
5.3372
5.33719
5.33719
5.33719
5.33719
5.3372
5.33722
5.33725
5.33728
5.33731
5.33735
5.3374
5.33745
5.33751
5.33758
5.33765
5.33772
5.33781
5.33789
5.33798
5.33808
5.33818
5.33828
5.33838
5.33849
5.33859
5.33869
5.33878
5.33887
5.33895
5.33901
5.33906
5.33908
5.33907
5.33903
5.33895
5.33883
5.33865
5.33843
5.33814
5.33779
5.33737
5.33696
5.33626
5.33659
5.33694
5.33723
5.33748
5.33768
5.33785
5.33798
5.33807
5.33813
5.33817
5.33818
5.33817
5.33815
5.33811
5.33806
5.33801
5.33795
5.33788
5.33781
5.33774
5.33767
5.3376
5.33753
5.33747
5.3374
5.33734
5.33729
5.33723
5.33718
5.33714
5.3371
5.33706
5.33703
5.337
5.33698
5.33696
5.33695
5.33694
5.33693
5.33693
5.33694
5.33695
5.33696
5.33698
5.337
5.33703
5.33706
5.3371
5.33714
5.33718
5.33723
5.33729
5.33734
5.3374
5.33747
5.33753
5.3376
5.33767
5.33774
5.33781
5.33788
5.33795
5.33801
5.33806
5.33811
5.33815
5.33817
5.33818
5.33817
5.33813
5.33807
5.33798
5.33785
5.33768
5.33748
5.33723
5.33694
5.33659
5.33626
5.33567
5.33594
5.33623
5.33647
5.33669
5.33687
5.33702
5.33714
5.33724
5.33731
5.33737
5.3374
5.33742
5.33742
5.33741
5.33739
5.33736
5.33733
5.33729
5.33725
5.33721
5.33716
5.33712
5.33707
5.33703
5.33699
5.33694
5.3369
5.33687
5.33683
5.3368
5.33677
5.33674
5.33672
5.3367
5.33668
5.33667
5.33666
5.33665
5.33665
5.33665
5.33665
5.33666
5.33667
5.33668
5.3367
5.33672
5.33674
5.33677
5.3368
5.33683
5.33687
5.3369
5.33694
5.33699
5.33703
5.33707
5.33712
5.33716
5.33721
5.33725
5.33729
5.33733
5.33736
5.33739
5.33741
5.33742
5.33742
5.3374
5.33737
5.33731
5.33724
5.33714
5.33702
5.33687
5.33669
5.33647
5.33623
5.33594
5.33567
5.33515
5.33538
5.33562
5.33583
5.33601
5.33617
5.3363
5.33642
5.33652
5.33659
5.33665
5.3367
5.33673
5.33675
5.33676
5.33676
5.33676
5.33675
5.33673
5.33671
5.33669
5.33666
5.33664
5.33661
5.33658
5.33656
5.33653
5.3365
5.33648
5.33646
5.33644
5.33642
5.3364
5.33638
5.33637
5.33636
5.33635
5.33634
5.33634
5.33634
5.33634
5.33634
5.33634
5.33635
5.33636
5.33637
5.33638
5.3364
5.33642
5.33644
5.33646
5.33648
5.3365
5.33653
5.33656
5.33658
5.33661
5.33664
5.33666
5.33669
5.33671
5.33673
5.33675
5.33676
5.33676
5.33676
5.33675
5.33673
5.3367
5.33665
5.33659
5.33652
5.33642
5.3363
5.33617
5.33601
5.33583
5.33562
5.33538
5.33515
5.3347
5.33488
5.33508
5.33526
5.33542
5.33556
5.33568
5.33579
5.33588
5.33595
5.33602
5.33607
5.33611
5.33614
5.33616
5.33618
5.33619
5.33619
5.33619
5.33619
5.33618
5.33617
5.33616
5.33615
5.33614
5.33612
5.33611
5.3361
5.33608
5.33607
5.33606
5.33605
5.33604
5.33603
5.33602
5.33602
5.33601
5.33601
5.336
5.336
5.336
5.336
5.33601
5.33601
5.33602
5.33602
5.33603
5.33604
5.33605
5.33606
5.33607
5.33608
5.3361
5.33611
5.33612
5.33614
5.33615
5.33616
5.33617
5.33618
5.33619
5.33619
5.33619
5.33619
5.33618
5.33616
5.33614
5.33611
5.33607
5.33602
5.33595
5.33588
5.33579
5.33568
5.33556
5.33542
5.33526
5.33508
5.33488
5.3347
5.33428
5.33444
5.33461
5.33476
5.33489
5.33501
5.33512
5.33522
5.3353
5.33538
5.33544
5.33549
5.33554
5.33558
5.33561
5.33563
5.33565
5.33567
5.33568
5.33569
5.33569
5.33569
5.3357
5.3357
5.33569
5.33569
5.33569
5.33569
5.33568
5.33568
5.33568
5.33567
5.33567
5.33567
5.33566
5.33566
5.33566
5.33566
5.33566
5.33565
5.33565
5.33566
5.33566
5.33566
5.33566
5.33566
5.33567
5.33567
5.33567
5.33568
5.33568
5.33568
5.33569
5.33569
5.33569
5.33569
5.3357
5.3357
5.33569
5.33569
5.33569
5.33568
5.33567
5.33565
5.33563
5.33561
5.33558
5.33554
5.33549
5.33544
5.33538
5.3353
5.33522
5.33512
5.33501
5.33489
5.33476
5.33461
5.33444
5.33428
5.3339
5.33403
5.33418
5.3343
5.33442
5.33453
5.33462
5.33471
5.33479
5.33486
5.33492
5.33497
5.33502
5.33506
5.33509
5.33512
5.33515
5.33517
5.33519
5.3352
5.33522
5.33523
5.33524
5.33525
5.33526
5.33526
5.33527
5.33527
5.33528
5.33528
5.33528
5.33529
5.33529
5.33529
5.33529
5.33529
5.33529
5.33529
5.33529
5.33529
5.33529
5.33529
5.33529
5.33529
5.33529
5.33529
5.33529
5.33529
5.33529
5.33528
5.33528
5.33528
5.33527
5.33527
5.33526
5.33526
5.33525
5.33524
5.33523
5.33522
5.3352
5.33519
5.33517
5.33515
5.33512
5.33509
5.33506
5.33502
5.33497
5.33492
5.33486
5.33479
5.33471
5.33462
5.33453
5.33442
5.3343
5.33418
5.33403
5.3339
5.33354
5.33366
5.33378
5.33389
5.33399
5.33408
5.33417
5.33424
5.33431
5.33438
5.33443
5.33448
5.33453
5.33457
5.33461
5.33464
5.33467
5.3347
5.33472
5.33475
5.33477
5.33478
5.3348
5.33482
5.33483
5.33484
5.33485
5.33487
5.33487
5.33488
5.33489
5.3349
5.3349
5.33491
5.33491
5.33492
5.33492
5.33492
5.33492
5.33493
5.33493
5.33492
5.33492
5.33492
5.33492
5.33491
5.33491
5.3349
5.3349
5.33489
5.33488
5.33487
5.33487
5.33485
5.33484
5.33483
5.33482
5.3348
5.33478
5.33477
5.33475
5.33472
5.3347
5.33467
5.33464
5.33461
5.33457
5.33453
5.33448
5.33443
5.33438
5.33431
5.33424
5.33417
5.33408
5.33399
5.33389
5.33378
5.33366
5.33354
5.33321
5.3333
5.33341
5.3335
5.33359
5.33367
5.33374
5.33381
5.33388
5.33393
5.33399
5.33403
5.33408
5.33412
5.33416
5.33419
5.33422
5.33425
5.33428
5.33431
5.33433
5.33435
5.33437
5.33439
5.33441
5.33443
5.33445
5.33446
5.33447
5.33449
5.3345
5.33451
5.33452
5.33453
5.33453
5.33454
5.33454
5.33455
5.33455
5.33455
5.33455
5.33455
5.33455
5.33454
5.33454
5.33453
5.33453
5.33452
5.33451
5.3345
5.33449
5.33447
5.33446
5.33445
5.33443
5.33441
5.33439
5.33437
5.33435
5.33433
5.33431
5.33428
5.33425
5.33422
5.33419
5.33416
5.33412
5.33408
5.33403
5.33399
5.33393
5.33388
5.33381
5.33374
5.33367
5.33359
5.3335
5.33341
5.3333
5.33321
5.33289
5.33297
5.33306
5.33314
5.33321
5.33328
5.33335
5.33341
5.33347
5.33352
5.33357
5.33361
5.33366
5.33369
5.33373
5.33377
5.3338
5.33383
5.33386
5.33388
5.33391
5.33394
5.33396
5.33398
5.334
5.33402
5.33404
5.33406
5.33408
5.33409
5.33411
5.33412
5.33413
5.33414
5.33415
5.33416
5.33417
5.33417
5.33417
5.33418
5.33418
5.33417
5.33417
5.33417
5.33416
5.33415
5.33414
5.33413
5.33412
5.33411
5.33409
5.33408
5.33406
5.33404
5.33402
5.334
5.33398
5.33396
5.33394
5.33391
5.33388
5.33386
5.33383
5.3338
5.33377
5.33373
5.33369
5.33366
5.33361
5.33357
5.33352
5.33347
5.33341
5.33335
5.33328
5.33321
5.33314
5.33306
5.33297
5.33289
5.33258
5.33265
5.33272
5.33279
5.33286
5.33292
5.33298
5.33303
5.33308
5.33313
5.33317
5.33321
5.33325
5.33329
5.33333
5.33336
5.33339
5.33342
5.33345
5.33348
5.33351
5.33353
5.33356
5.33358
5.33361
5.33363
5.33365
5.33367
5.33369
5.33371
5.33372
5.33374
5.33375
5.33376
5.33377
5.33378
5.33379
5.33379
5.3338
5.3338
5.3338
5.3338
5.33379
5.33379
5.33378
5.33377
5.33376
5.33375
5.33374
5.33372
5.33371
5.33369
5.33367
5.33365
5.33363
5.33361
5.33358
5.33356
5.33353
5.33351
5.33348
5.33345
5.33342
5.33339
5.33336
5.33333
5.33329
5.33325
5.33321
5.33317
5.33313
5.33308
5.33303
5.33298
5.33292
5.33286
5.33279
5.33272
5.33265
5.33258
5.33228
5.33234
5.3324
5.33246
5.33252
5.33257
5.33262
5.33267
5.33272
5.33276
5.3328
5.33284
5.33287
5.33291
5.33294
5.33297
5.333
5.33303
5.33306
5.33309
5.33312
5.33315
5.33317
5.3332
5.33322
5.33324
5.33327
5.33329
5.33331
5.33332
5.33334
5.33336
5.33337
5.33338
5.3334
5.33341
5.33341
5.33342
5.33342
5.33342
5.33342
5.33342
5.33342
5.33341
5.33341
5.3334
5.33338
5.33337
5.33336
5.33334
5.33332
5.33331
5.33329
5.33327
5.33324
5.33322
5.3332
5.33317
5.33315
5.33312
5.33309
5.33306
5.33303
5.333
5.33297
5.33294
5.33291
5.33287
5.33284
5.3328
5.33276
5.33272
5.33267
5.33262
5.33257
5.33252
5.33246
5.3324
5.33234
5.33228
5.33199
5.33204
5.33209
5.33215
5.33219
5.33224
5.33228
5.33233
5.33237
5.3324
5.33244
5.33247
5.33251
5.33254
5.33257
5.3326
5.33263
5.33266
5.33269
5.33272
5.33274
5.33277
5.33279
5.33282
5.33284
5.33287
5.33289
5.33291
5.33293
5.33295
5.33297
5.33298
5.333
5.33301
5.33302
5.33303
5.33304
5.33305
5.33305
5.33305
5.33305
5.33305
5.33305
5.33304
5.33303
5.33302
5.33301
5.333
5.33298
5.33297
5.33295
5.33293
5.33291
5.33289
5.33287
5.33284
5.33282
5.33279
5.33277
5.33274
5.33272
5.33269
5.33266
5.33263
5.3326
5.33257
5.33254
5.33251
5.33247
5.33244
5.3324
5.33237
5.33233
5.33228
5.33224
5.33219
5.33215
5.33209
5.33204
5.33199
5.3317
5.33175
5.33179
5.33184
5.33188
5.33192
5.33196
5.33199
5.33203
5.33206
5.3321
5.33213
5.33216
5.33219
5.33222
5.33224
5.33227
5.3323
5.33233
5.33235
5.33238
5.3324
5.33243
5.33245
5.33248
5.3325
5.33252
5.33254
5.33256
5.33258
5.3326
5.33262
5.33263
5.33264
5.33266
5.33266
5.33267
5.33268
5.33268
5.33268
5.33268
5.33268
5.33268
5.33267
5.33266
5.33266
5.33264
5.33263
5.33262
5.3326
5.33258
5.33256
5.33254
5.33252
5.3325
5.33248
5.33245
5.33243
5.3324
5.33238
5.33235
5.33233
5.3323
5.33227
5.33224
5.33222
5.33219
5.33216
5.33213
5.3321
5.33206
5.33203
5.33199
5.33196
5.33192
5.33188
5.33184
5.33179
5.33175
5.3317
5.33142
5.33146
5.3315
5.33154
5.33157
5.33161
5.33164
5.33167
5.3317
5.33173
5.33176
5.33179
5.33182
5.33184
5.33187
5.3319
5.33192
5.33195
5.33197
5.332
5.33202
5.33205
5.33207
5.33209
5.33212
5.33214
5.33216
5.33218
5.3322
5.33222
5.33224
5.33225
5.33227
5.33228
5.33229
5.3323
5.33231
5.33232
5.33232
5.33232
5.33232
5.33232
5.33232
5.33231
5.3323
5.33229
5.33228
5.33227
5.33225
5.33224
5.33222
5.3322
5.33218
5.33216
5.33214
5.33212
5.33209
5.33207
5.33205
5.33202
5.332
5.33197
5.33195
5.33192
5.3319
5.33187
5.33184
5.33182
5.33179
5.33176
5.33173
5.3317
5.33167
5.33164
5.33161
5.33157
5.33154
5.3315
5.33146
5.33142
5.33114
5.33117
5.33121
5.33124
5.33127
5.3313
5.33133
5.33136
5.33139
5.33141
5.33144
5.33146
5.33149
5.33151
5.33154
5.33156
5.33158
5.33161
5.33163
5.33165
5.33168
5.3317
5.33172
5.33175
5.33177
5.33179
5.33181
5.33183
5.33185
5.33187
5.33188
5.3319
5.33191
5.33192
5.33194
5.33195
5.33195
5.33196
5.33196
5.33196
5.33196
5.33196
5.33196
5.33195
5.33195
5.33194
5.33192
5.33191
5.3319
5.33188
5.33187
5.33185
5.33183
5.33181
5.33179
5.33177
5.33175
5.33172
5.3317
5.33168
5.33165
5.33163
5.33161
5.33158
5.33156
5.33154
5.33151
5.33149
5.33146
5.33144
5.33141
5.33139
5.33136
5.33133
5.3313
5.33127
5.33124
5.33121
5.33117
5.33114
5.33086
5.33089
5.33092
5.33095
5.33098
5.331
5.33103
5.33105
5.33108
5.3311
5.33112
5.33114
5.33117
5.33119
5.33121
5.33123
5.33125
5.33128
5.3313
5.33132
5.33134
5.33136
5.33138
5.3314
5.33142
5.33144
5.33146
5.33148
5.3315
5.33152
5.33153
5.33155
5.33156
5.33157
5.33158
5.33159
5.3316
5.33161
5.33161
5.33161
5.33161
5.33161
5.33161
5.3316
5.33159
5.33158
5.33157
5.33156
5.33155
5.33153
5.33152
5.3315
5.33148
5.33146
5.33144
5.33142
5.3314
5.33138
5.33136
5.33134
5.33132
5.3313
5.33128
5.33125
5.33123
5.33121
5.33119
5.33117
5.33114
5.33112
5.3311
5.33108
5.33105
5.33103
5.331
5.33098
5.33095
5.33092
5.33089
5.33086
5.33059
5.33061
5.33064
5.33066
5.33068
5.33071
5.33073
5.33075
5.33077
5.33079
5.33081
5.33083
5.33085
5.33087
5.33089
5.33091
5.33093
5.33095
5.33097
5.33099
5.33101
5.33103
5.33105
5.33107
5.33109
5.33111
5.33113
5.33114
5.33116
5.33118
5.33119
5.33121
5.33122
5.33123
5.33124
5.33125
5.33125
5.33126
5.33126
5.33126
5.33126
5.33126
5.33126
5.33125
5.33125
5.33124
5.33123
5.33122
5.33121
5.33119
5.33118
5.33116
5.33114
5.33113
5.33111
5.33109
5.33107
5.33105
5.33103
5.33101
5.33099
5.33097
5.33095
5.33093
5.33091
5.33089
5.33087
5.33085
5.33083
5.33081
5.33079
5.33077
5.33075
5.33073
5.33071
5.33068
5.33066
5.33064
5.33061
5.33059
5.33031
5.33033
5.33035
5.33038
5.3304
5.33041
5.33043
5.33045
5.33047
5.33049
5.33051
5.33053
5.33054
5.33056
5.33058
5.3306
5.33061
5.33063
5.33065
5.33067
5.33069
5.33071
5.33072
5.33074
5.33076
5.33078
5.33079
5.33081
5.33083
5.33084
5.33085
5.33087
5.33088
5.33089
5.3309
5.33091
5.33091
5.33092
5.33092
5.33092
5.33092
5.33092
5.33092
5.33091
5.33091
5.3309
5.33089
5.33088
5.33087
5.33085
5.33084
5.33083
5.33081
5.33079
5.33078
5.33076
5.33074
5.33072
5.33071
5.33069
5.33067
5.33065
5.33063
5.33061
5.3306
5.33058
5.33056
5.33054
5.33053
5.33051
5.33049
5.33047
5.33045
5.33043
5.33041
5.3304
5.33038
5.33035
5.33033
5.33031
5.33004
5.33006
5.33007
5.33009
5.33011
5.33013
5.33014
5.33016
5.33018
5.33019
5.33021
5.33022
5.33024
5.33025
5.33027
5.33029
5.3303
5.33032
5.33034
5.33035
5.33037
5.33039
5.3304
5.33042
5.33044
5.33045
5.33047
5.33048
5.3305
5.33051
5.33052
5.33054
5.33055
5.33056
5.33056
5.33057
5.33058
5.33058
5.33059
5.33059
5.33059
5.33059
5.33058
5.33058
5.33057
5.33056
5.33056
5.33055
5.33054
5.33052
5.33051
5.3305
5.33048
5.33047
5.33045
5.33044
5.33042
5.3304
5.33039
5.33037
5.33035
5.33034
5.33032
5.3303
5.33029
5.33027
5.33025
5.33024
5.33022
5.33021
5.33019
5.33018
5.33016
5.33014
5.33013
5.33011
5.33009
5.33007
5.33006
5.33004
5.32977
5.32978
5.3298
5.32981
5.32983
5.32984
5.32985
5.32987
5.32988
5.3299
5.32991
5.32992
5.32994
5.32995
5.32997
5.32998
5.33
5.33001
5.33003
5.33004
5.33006
5.33007
5.33009
5.3301
5.33012
5.33013
5.33014
5.33016
5.33017
5.33018
5.3302
5.33021
5.33022
5.33023
5.33023
5.33024
5.33025
5.33025
5.33025
5.33026
5.33026
5.33025
5.33025
5.33025
5.33024
5.33023
5.33023
5.33022
5.33021
5.3302
5.33018
5.33017
5.33016
5.33014
5.33013
5.33012
5.3301
5.33009
5.33007
5.33006
5.33004
5.33003
5.33001
5.33
5.32998
5.32997
5.32995
5.32994
5.32992
5.32991
5.3299
5.32988
5.32987
5.32985
5.32984
5.32983
5.32981
5.3298
5.32978
5.32977
5.32949
5.3295
5.32952
5.32953
5.32954
5.32956
5.32957
5.32958
5.32959
5.3296
5.32962
5.32963
5.32964
5.32965
5.32967
5.32968
5.32969
5.32971
5.32972
5.32973
5.32975
5.32976
5.32977
5.32979
5.3298
5.32981
5.32983
5.32984
5.32985
5.32986
5.32987
5.32989
5.32989
5.3299
5.32991
5.32992
5.32992
5.32992
5.32993
5.32993
5.32993
5.32993
5.32992
5.32992
5.32992
5.32991
5.3299
5.32989
5.32989
5.32987
5.32986
5.32985
5.32984
5.32983
5.32981
5.3298
5.32979
5.32977
5.32976
5.32975
5.32973
5.32972
5.32971
5.32969
5.32968
5.32967
5.32965
5.32964
5.32963
5.32962
5.3296
5.32959
5.32958
5.32957
5.32956
5.32954
5.32953
5.32952
5.3295
5.32949
5.32922
5.32923
5.32924
5.32925
5.32926
5.32927
5.32928
5.32929
5.3293
5.32931
5.32933
5.32934
5.32935
5.32936
5.32937
5.32938
5.32939
5.3294
5.32942
5.32943
5.32944
5.32945
5.32947
5.32948
5.32949
5.3295
5.32951
5.32953
5.32954
5.32955
5.32956
5.32957
5.32957
5.32958
5.32959
5.32959
5.3296
5.3296
5.32961
5.32961
5.32961
5.32961
5.3296
5.3296
5.32959
5.32959
5.32958
5.32957
5.32957
5.32956
5.32955
5.32954
5.32953
5.32951
5.3295
5.32949
5.32948
5.32947
5.32945
5.32944
5.32943
5.32942
5.3294
5.32939
5.32938
5.32937
5.32936
5.32935
5.32934
5.32933
5.32931
5.3293
5.32929
5.32928
5.32927
5.32926
5.32925
5.32924
5.32923
5.32922
5.32894
5.32895
5.32896
5.32897
5.32898
5.32899
5.329
5.32901
5.32902
5.32903
5.32904
5.32905
5.32905
5.32906
5.32907
5.32908
5.3291
5.32911
5.32912
5.32913
5.32914
5.32915
5.32916
5.32917
5.32918
5.32919
5.3292
5.32921
5.32922
5.32923
5.32924
5.32925
5.32926
5.32927
5.32927
5.32928
5.32928
5.32928
5.32929
5.32929
5.32929
5.32929
5.32928
5.32928
5.32928
5.32927
5.32927
5.32926
5.32925
5.32924
5.32923
5.32922
5.32921
5.3292
5.32919
5.32918
5.32917
5.32916
5.32915
5.32914
5.32913
5.32912
5.32911
5.3291
5.32908
5.32907
5.32906
5.32905
5.32905
5.32904
5.32903
5.32902
5.32901
5.329
5.32899
5.32898
5.32897
5.32896
5.32895
5.32894
5.32867
5.32868
5.32868
5.32869
5.3287
5.32871
5.32872
5.32872
5.32873
5.32874
5.32875
5.32876
5.32876
5.32877
5.32878
5.32879
5.3288
5.32881
5.32882
5.32883
5.32884
5.32885
5.32886
5.32887
5.32888
5.32889
5.3289
5.32891
5.32892
5.32892
5.32893
5.32894
5.32895
5.32895
5.32896
5.32896
5.32897
5.32897
5.32897
5.32897
5.32897
5.32897
5.32897
5.32897
5.32896
5.32896
5.32895
5.32895
5.32894
5.32893
5.32892
5.32892
5.32891
5.3289
5.32889
5.32888
5.32887
5.32886
5.32885
5.32884
5.32883
5.32882
5.32881
5.3288
5.32879
5.32878
5.32877
5.32876
5.32876
5.32875
5.32874
5.32873
5.32872
5.32872
5.32871
5.3287
5.32869
5.32868
5.32868
5.32867
5.32839
5.3284
5.32841
5.32841
5.32842
5.32843
5.32843
5.32844
5.32845
5.32845
5.32846
5.32847
5.32848
5.32848
5.32849
5.3285
5.32851
5.32852
5.32852
5.32853
5.32854
5.32855
5.32856
5.32857
5.32858
5.32859
5.32859
5.3286
5.32861
5.32862
5.32863
5.32863
5.32864
5.32864
5.32865
5.32865
5.32866
5.32866
5.32866
5.32866
5.32866
5.32866
5.32866
5.32866
5.32865
5.32865
5.32864
5.32864
5.32863
5.32863
5.32862
5.32861
5.3286
5.32859
5.32859
5.32858
5.32857
5.32856
5.32855
5.32854
5.32853
5.32852
5.32852
5.32851
5.3285
5.32849
5.32848
5.32848
5.32847
5.32846
5.32845
5.32845
5.32844
5.32843
5.32843
5.32842
5.32841
5.32841
5.3284
5.32839
5.32812
5.32812
5.32813
5.32813
5.32814
5.32814
5.32815
5.32816
5.32816
5.32817
5.32817
5.32818
5.32819
5.32819
5.3282
5.32821
5.32822
5.32822
5.32823
5.32824
5.32825
5.32825
5.32826
5.32827
5.32828
5.32829
5.32829
5.3283
5.32831
5.32831
5.32832
5.32833
5.32833
5.32834
5.32834
5.32835
5.32835
5.32835
5.32835
5.32835
5.32835
5.32835
5.32835
5.32835
5.32835
5.32834
5.32834
5.32833
5.32833
5.32832
5.32831
5.32831
5.3283
5.32829
5.32829
5.32828
5.32827
5.32826
5.32825
5.32825
5.32824
5.32823
5.32822
5.32822
5.32821
5.3282
5.32819
5.32819
5.32818
5.32817
5.32817
5.32816
5.32816
5.32815
5.32814
5.32814
5.32813
5.32813
5.32812
5.32812
5.32784
5.32784
5.32785
5.32785
5.32786
5.32786
5.32787
5.32787
5.32788
5.32788
5.32789
5.32789
5.3279
5.32791
5.32791
5.32792
5.32792
5.32793
5.32794
5.32794
5.32795
5.32796
5.32797
5.32797
5.32798
5.32799
5.32799
5.328
5.32801
5.32801
5.32802
5.32802
5.32803
5.32803
5.32804
5.32804
5.32804
5.32805
5.32805
5.32805
5.32805
5.32805
5.32805
5.32804
5.32804
5.32804
5.32803
5.32803
5.32802
5.32802
5.32801
5.32801
5.328
5.32799
5.32799
5.32798
5.32797
5.32797
5.32796
5.32795
5.32794
5.32794
5.32793
5.32792
5.32792
5.32791
5.32791
5.3279
5.32789
5.32789
5.32788
5.32788
5.32787
5.32787
5.32786
5.32786
5.32785
5.32785
5.32784
5.32784
5.32756
5.32757
5.32757
5.32757
5.32758
5.32758
5.32759
5.32759
5.32759
5.3276
5.3276
5.32761
5.32761
5.32762
5.32762
5.32763
5.32764
5.32764
5.32765
5.32765
5.32766
5.32767
5.32767
5.32768
5.32768
5.32769
5.3277
5.3277
5.32771
5.32771
5.32772
5.32772
5.32773
5.32773
5.32774
5.32774
5.32774
5.32774
5.32774
5.32774
5.32774
5.32774
5.32774
5.32774
5.32774
5.32774
5.32773
5.32773
5.32772
5.32772
5.32771
5.32771
5.3277
5.3277
5.32769
5.32768
5.32768
5.32767
5.32767
5.32766
5.32765
5.32765
5.32764
5.32764
5.32763
5.32762
5.32762
5.32761
5.32761
5.3276
5.3276
5.32759
5.32759
5.32759
5.32758
5.32758
5.32757
5.32757
5.32757
5.32756
5.32728
5.32729
5.32729
5.32729
5.3273
5.3273
5.3273
5.32731
5.32731
5.32732
5.32732
5.32732
5.32733
5.32733
5.32734
5.32734
5.32735
5.32735
5.32736
5.32736
5.32737
5.32737
5.32738
5.32738
5.32739
5.3274
5.3274
5.32741
5.32741
5.32742
5.32742
5.32742
5.32743
5.32743
5.32744
5.32744
5.32744
5.32744
5.32744
5.32744
5.32744
5.32744
5.32744
5.32744
5.32744
5.32744
5.32743
5.32743
5.32742
5.32742
5.32742
5.32741
5.32741
5.3274
5.3274
5.32739
5.32738
5.32738
5.32737
5.32737
5.32736
5.32736
5.32735
5.32735
5.32734
5.32734
5.32733
5.32733
5.32732
5.32732
5.32732
5.32731
5.32731
5.3273
5.3273
5.3273
5.32729
5.32729
5.32729
5.32728
5.32701
5.32701
5.32701
5.32701
5.32702
5.32702
5.32702
5.32703
5.32703
5.32703
5.32704
5.32704
5.32704
5.32705
5.32705
5.32705
5.32706
5.32706
5.32707
5.32707
5.32708
5.32708
5.32709
5.32709
5.3271
5.3271
5.32711
5.32711
5.32712
5.32712
5.32712
5.32713
5.32713
5.32713
5.32714
5.32714
5.32714
5.32714
5.32714
5.32714
5.32714
5.32714
5.32714
5.32714
5.32714
5.32714
5.32713
5.32713
5.32713
5.32712
5.32712
5.32712
5.32711
5.32711
5.3271
5.3271
5.32709
5.32709
5.32708
5.32708
5.32707
5.32707
5.32706
5.32706
5.32705
5.32705
5.32705
5.32704
5.32704
5.32704
5.32703
5.32703
5.32703
5.32702
5.32702
5.32702
5.32701
5.32701
5.32701
5.32701
5.32673
5.32673
5.32673
5.32673
5.32674
5.32674
5.32674
5.32674
5.32675
5.32675
5.32675
5.32675
5.32676
5.32676
5.32676
5.32677
5.32677
5.32678
5.32678
5.32678
5.32679
5.32679
5.3268
5.3268
5.32681
5.32681
5.32681
5.32682
5.32682
5.32683
5.32683
5.32683
5.32684
5.32684
5.32684
5.32684
5.32684
5.32685
5.32685
5.32685
5.32685
5.32685
5.32685
5.32684
5.32684
5.32684
5.32684
5.32684
5.32683
5.32683
5.32683
5.32682
5.32682
5.32681
5.32681
5.32681
5.3268
5.3268
5.32679
5.32679
5.32678
5.32678
5.32678
5.32677
5.32677
5.32676
5.32676
5.32676
5.32675
5.32675
5.32675
5.32675
5.32674
5.32674
5.32674
5.32674
5.32673
5.32673
5.32673
5.32673
5.32645
5.32645
5.32645
5.32645
5.32645
5.32646
5.32646
5.32646
5.32646
5.32646
5.32647
5.32647
5.32647
5.32648
5.32648
5.32648
5.32649
5.32649
5.32649
5.3265
5.3265
5.3265
5.32651
5.32651
5.32651
5.32652
5.32652
5.32653
5.32653
5.32653
5.32654
5.32654
5.32654
5.32654
5.32655
5.32655
5.32655
5.32655
5.32655
5.32655
5.32655
5.32655
5.32655
5.32655
5.32655
5.32655
5.32654
5.32654
5.32654
5.32654
5.32653
5.32653
5.32653
5.32652
5.32652
5.32651
5.32651
5.32651
5.3265
5.3265
5.3265
5.32649
5.32649
5.32649
5.32648
5.32648
5.32648
5.32647
5.32647
5.32647
5.32646
5.32646
5.32646
5.32646
5.32646
5.32645
5.32645
5.32645
5.32645
5.32645
5.32617
5.32617
5.32617
5.32617
5.32617
5.32617
5.32618
5.32618
5.32618
5.32618
5.32618
5.32619
5.32619
5.32619
5.32619
5.3262
5.3262
5.3262
5.3262
5.32621
5.32621
5.32621
5.32622
5.32622
5.32622
5.32623
5.32623
5.32623
5.32624
5.32624
5.32624
5.32625
5.32625
5.32625
5.32625
5.32625
5.32625
5.32626
5.32626
5.32626
5.32626
5.32626
5.32626
5.32625
5.32625
5.32625
5.32625
5.32625
5.32625
5.32624
5.32624
5.32624
5.32623
5.32623
5.32623
5.32622
5.32622
5.32622
5.32621
5.32621
5.32621
5.3262
5.3262
5.3262
5.3262
5.32619
5.32619
5.32619
5.32619
5.32618
5.32618
5.32618
5.32618
5.32618
5.32617
5.32617
5.32617
5.32617
5.32617
5.32617
5.32589
5.32589
5.32589
5.32589
5.32589
5.32589
5.32589
5.32589
5.3259
5.3259
5.3259
5.3259
5.3259
5.32591
5.32591
5.32591
5.32591
5.32592
5.32592
5.32592
5.32592
5.32593
5.32593
5.32593
5.32594
5.32594
5.32594
5.32594
5.32595
5.32595
5.32595
5.32595
5.32596
5.32596
5.32596
5.32596
5.32596
5.32596
5.32596
5.32596
5.32596
5.32596
5.32596
5.32596
5.32596
5.32596
5.32596
5.32596
5.32595
5.32595
5.32595
5.32595
5.32594
5.32594
5.32594
5.32594
5.32593
5.32593
5.32593
5.32592
5.32592
5.32592
5.32592
5.32591
5.32591
5.32591
5.32591
5.3259
5.3259
5.3259
5.3259
5.3259
5.32589
5.32589
5.32589
5.32589
5.32589
5.32589
5.32589
5.32589
5.3256
5.3256
5.32561
5.32561
5.32561
5.32561
5.32561
5.32561
5.32561
5.32561
5.32562
5.32562
5.32562
5.32562
5.32562
5.32562
5.32563
5.32563
5.32563
5.32563
5.32564
5.32564
5.32564
5.32564
5.32565
5.32565
5.32565
5.32565
5.32566
5.32566
5.32566
5.32566
5.32566
5.32567
5.32567
5.32567
5.32567
5.32567
5.32567
5.32567
5.32567
5.32567
5.32567
5.32567
5.32567
5.32567
5.32567
5.32566
5.32566
5.32566
5.32566
5.32566
5.32565
5.32565
5.32565
5.32565
5.32564
5.32564
5.32564
5.32564
5.32563
5.32563
5.32563
5.32563
5.32562
5.32562
5.32562
5.32562
5.32562
5.32562
5.32561
5.32561
5.32561
5.32561
5.32561
5.32561
5.32561
5.32561
5.3256
5.3256
5.32532
5.32532
5.32532
5.32532
5.32532
5.32533
5.32533
5.32533
5.32533
5.32533
5.32533
5.32533
5.32533
5.32534
5.32534
5.32534
5.32534
5.32534
5.32535
5.32535
5.32535
5.32535
5.32535
5.32536
5.32536
5.32536
5.32536
5.32536
5.32537
5.32537
5.32537
5.32537
5.32537
5.32538
5.32538
5.32538
5.32538
5.32538
5.32538
5.32538
5.32538
5.32538
5.32538
5.32538
5.32538
5.32538
5.32538
5.32537
5.32537
5.32537
5.32537
5.32537
5.32536
5.32536
5.32536
5.32536
5.32536
5.32535
5.32535
5.32535
5.32535
5.32535
5.32534
5.32534
5.32534
5.32534
5.32534
5.32533
5.32533
5.32533
5.32533
5.32533
5.32533
5.32533
5.32533
5.32532
5.32532
5.32532
5.32532
5.32532
5.32504
5.32504
5.32504
5.32504
5.32504
5.32504
5.32504
5.32504
5.32505
5.32505
5.32505
5.32505
5.32505
5.32505
5.32505
5.32505
5.32506
5.32506
5.32506
5.32506
5.32506
5.32506
5.32507
5.32507
5.32507
5.32507
5.32507
5.32508
5.32508
5.32508
5.32508
5.32508