/*--------------------------------*- C++ -*----------------------------------*\
  =========                 |
  \\      /  F ield         | OpenFOAM: The Open Source CFD Toolbox
   \\    /   O peration     | Website:  https://openfoam.org
    \\  /    A nd           | Version:  11
     \\/     M anipulation  |
\*---------------------------------------------------------------------------*/
FoamFile
{
    format      ascii;
    class       volScalarField;
    location    "100";
    object      C;
}
// * * * * * * * * * * * * * * * * * * * * * * * * * * * * * * * * * * * * * //

dimensions      [0 0 0 1 0 0 0];

internalField   nonuniform List<scalar> 
332800
(
6.69276e-309
5.85773e-309
4.69671e-309
3.55026e-309
2.54859e-309
1.7696e-309
1.17409e-309
7.51832e-310
4.70672e-310
2.71799e-310
1.61444e-310
1.10461e-310
8.19193e-311
7.68269e-311
2.31606e-311
-1.4871e-311
-9.43643e-314
3.03922e-311
1.85237e-311
9.19905e-312
-5.64018e-313
-4.64322e-313
2.07228e-311
2.16086e-311
4.73229e-312
3.30837e-312
-3.20041e-312
-3.59749e-312
2.5512e-311
2.27798e-311
7.83099e-312
2.38169e-311
3.42693e-311
2.55714e-311
1.18091e-311
3.53796e-311
2.42583e-311
2.97346e-311
5.9593e-312
1.54433e-311
2.55542e-312
1.10836e-311
6.26468e-312
-1.07708e-311
-4.04187e-311
-3.67539e-312
4.8779e-312
3.26752e-311
-9.05746e-312
-3.47547e-311
-1.08521e-311
-3.61374e-311
-5.8548e-311
-3.96196e-311
-2.01525e-311
-9.90455e-312
-6.95825e-312
-4.6571e-313
1.61335e-311
-6.71004e-313
3.13053e-311
5.68125e-312
8.5223e-312
-6.96416e-312
-4.92136e-312
8.73598e-312
1.11044e-311
1.77711e-311
3.65122e-311
8.77235e-312
2.10872e-311
7.6655e-312
-6.11179e-312
-4.98939e-312
-5.95614e-312
2.12147e-312
-1.33845e-311
-2.68609e-311
-6.90922e-312
-5.91927e-312
6.3884e-308
4.48611e-308
3.18283e-308
2.24871e-308
1.57103e-308
1.08191e-308
7.30702e-309
4.87668e-309
3.17862e-309
2.04786e-309
1.29027e-309
7.89795e-310
4.9643e-310
3.06973e-310
1.69883e-310
6.724e-311
3.18774e-311
6.79666e-311
1.34483e-311
-1.27153e-311
-1.15002e-311
-2.32947e-311
-1.68012e-312
3.26947e-311
1.76042e-311
3.7333e-311
1.00248e-311
-5.66771e-312
-1.26807e-311
3.56926e-311
3.07318e-311
3.76822e-311
6.42707e-312
9.49282e-312
2.11083e-312
-1.67851e-311
-1.19857e-312
3.83017e-311
3.10843e-311
5.37906e-311
4.24418e-311
3.01604e-311
-1.58197e-311
-2.24396e-311
-6.5533e-311
-3.37057e-311
1.42265e-311
-4.97182e-312
-2.04086e-311
-7.05613e-311
-5.45995e-311
-5.13229e-311
-3.72489e-311
-3.94591e-311
-4.15383e-312
1.38123e-311
-6.31862e-312
1.83816e-312
2.20166e-311
2.57649e-311
2.43538e-311
1.39632e-311
4.39512e-311
1.52757e-311
-2.68815e-311
2.49659e-311
-1.32137e-311
1.83162e-311
5.65332e-311
5.985e-311
3.13233e-311
1.74635e-311
-1.06013e-311
-2.15489e-311
1.57597e-311
3.3269e-311
1.95901e-311
2.30488e-311
3.37503e-312
1.8399e-311
4.17145e-307
2.76306e-307
1.79034e-307
1.17475e-307
7.77849e-308
5.16724e-308
3.42799e-308
2.26338e-308
1.48336e-308
9.59243e-309
6.1307e-309
3.86244e-309
2.42066e-309
1.49981e-309
8.9095e-310
5.24324e-310
3.07846e-310
1.919e-310
1.16511e-310
3.18725e-311
-2.44106e-311
-3.25313e-311
-4.76234e-311
-1.18631e-311
-1.38464e-311
9.40765e-312
1.36556e-312
-1.30639e-311
4.96931e-312
-1.41831e-311
-1.31615e-312
3.30604e-311
1.25325e-311
-1.45998e-311
-6.1456e-311
-4.08014e-311
1.68424e-311
4.39133e-311
8.3698e-312
2.54519e-311
2.08145e-311
2.39226e-312
-9.00565e-312
-1.7129e-311
-6.57563e-311
-3.74469e-311
8.36413e-312
-1.26661e-311
-1.08966e-311
7.7818e-312
-5.82344e-311
-3.62243e-311
-1.82548e-311
-1.52737e-311
-1.97851e-311
-5.65764e-312
-1.78136e-311
-3.05776e-311
1.31253e-311
1.96835e-311
4.31759e-311
4.23674e-311
3.06931e-311
2.44949e-311
-6.74539e-312
-3.47503e-312
-1.17098e-311
7.00538e-312
4.94362e-311
3.37549e-311
-2.76541e-311
-4.10114e-311
-4.67154e-311
-6.00357e-312
5.12283e-311
7.54653e-311
4.75034e-311
4.51269e-311
3.1216e-311
8.92596e-311
2.08926e-306
1.40853e-306
8.83942e-307
5.52784e-307
3.48868e-307
2.22157e-307
1.4229e-307
9.13923e-308
5.8677e-308
3.75131e-308
2.38992e-308
1.50937e-308
9.46073e-309
5.89239e-309
3.60628e-309
2.16556e-309
1.26827e-309
7.33182e-310
4.64179e-310
2.70169e-310
1.26415e-310
4.26087e-311
-1.52141e-311
-1.67325e-311
9.90495e-313
-6.90195e-312
-1.10698e-311
-4.89119e-311
-2.54521e-311
-5.75362e-312
7.30982e-312
2.68104e-311
1.1203e-311
-6.53826e-312
-3.89709e-311
-7.33073e-311
-2.0348e-311
-1.66024e-311
-1.5686e-312
2.3656e-311
2.80073e-311
-1.03554e-311
-1.43898e-311
-7.63272e-311
-9.78532e-311
-7.05068e-311
-1.62375e-311
-2.9852e-311
-5.39833e-311
-7.20514e-312
-4.37831e-311
-1.36752e-311
-1.66652e-311
-5.83992e-311
-4.61113e-311
-1.59842e-311
-9.15392e-312
3.08758e-311
6.54829e-311
6.33604e-311
6.27154e-311
8.35886e-311
3.52863e-311
3.60133e-311
3.63019e-311
-1.082e-313
-3.42465e-311
-4.39386e-311
-2.51213e-311
-1.97438e-311
-5.41386e-311
-9.96409e-311
-7.21154e-311
-5.62011e-311
-1.46941e-311
2.62788e-311
3.26209e-311
1.81751e-311
-9.1799e-312
-2.72858e-311
8.85571e-306
6.1648e-306
3.87284e-306
2.36872e-306
1.44751e-306
8.8993e-307
5.50878e-307
3.42897e-307
2.14166e-307
1.33934e-307
8.37614e-308
5.22271e-308
3.24379e-308
2.00533e-308
1.22952e-308
7.44627e-309
4.46508e-309
2.63227e-309
1.55195e-309
9.18939e-310
5.3563e-310
2.9188e-310
1.34742e-310
4.88291e-311
2.85144e-311
1.26889e-313
-1.95459e-312
-8.40828e-312
-1.00627e-312
-1.05709e-311
-1.0484e-311
-4.42334e-312
-5.65632e-312
-1.30971e-311
-3.8546e-311
-6.3989e-311
-1.03544e-311
-1.08207e-312
5.84676e-311
7.78641e-311
3.10488e-311
-2.1466e-311
-4.63519e-311
-1.06082e-310
-6.99877e-311
-4.06989e-311
-1.36495e-311
-5.40618e-312
-6.04616e-311
-3.60241e-311
-6.16108e-311
-2.84773e-311
-1.77478e-311
-5.96802e-311
-2.98973e-311
2.91079e-312
3.0447e-311
8.31615e-311
8.42224e-311
7.60772e-311
4.80327e-311
5.05284e-311
4.15858e-311
1.81893e-311
1.53666e-311
-2.36485e-311
-2.28086e-311
1.52138e-311
-1.89529e-312
-1.49298e-311
-4.21189e-311
-4.8826e-311
-5.09983e-311
-2.79982e-311
-2.79923e-311
-1.13091e-311
1.14492e-311
-5.30621e-311
-1.19391e-310
-7.00184e-311
3.34307e-305
2.4006e-305
1.53124e-305
9.32071e-306
5.59378e-306
3.35341e-306
2.01754e-306
1.21964e-306
7.40519e-307
4.51185e-307
2.75474e-307
1.68239e-307
1.02709e-307
6.25432e-308
3.79613e-308
2.28757e-308
1.36967e-308
8.14136e-309
4.76311e-309
2.76246e-309
1.5884e-309
8.84298e-310
4.53199e-310
2.39256e-310
1.11516e-310
5.63188e-311
-8.9092e-313
-1.07183e-311
-1.65449e-311
-1.52078e-311
-3.37894e-312
-3.10592e-311
-3.27966e-311
-2.80907e-312
-4.33645e-311
-2.57304e-311
1.34549e-312
-8.29623e-312
8.08183e-311
1.25615e-310
7.48108e-311
4.17476e-312
-3.68931e-311
-5.59731e-311
-3.9478e-311
-3.44347e-311
-1.1885e-311
-2.42817e-311
-4.3337e-311
-3.30646e-312
-4.55373e-311
-1.40132e-312
1.68986e-311
-8.68654e-312
1.81631e-311
6.94001e-311
6.57991e-311
1.20686e-310
1.25701e-310
7.79539e-311
6.06797e-311
-2.46283e-313
-3.92832e-311
-4.09433e-311
-5.54735e-311
-6.29397e-311
-4.71007e-311
-2.91784e-311
-3.71747e-311
-3.41915e-311
-6.23487e-311
-2.89965e-311
1.7188e-311
4.20382e-311
7.75075e-311
5.3521e-311
1.44811e-311
-3.61332e-311
-6.46776e-311
-7.94597e-313
1.15959e-304
8.54904e-305
5.56119e-305
3.40167e-305
2.0254e-305
1.19406e-305
7.02604e-306
4.14138e-306
2.44888e-306
1.45304e-306
8.64718e-307
5.15664e-307
3.07812e-307
1.83713e-307
1.09532e-307
6.50746e-308
3.85261e-308
2.26886e-308
1.32104e-308
7.64444e-309
4.38304e-309
2.46507e-309
1.32199e-309
7.2514e-310
3.6353e-310
1.46097e-310
7.52171e-311
5.25567e-311
2.06898e-311
-7.00855e-312
-2.83057e-311
-7.51139e-311
-3.89691e-311
-5.82786e-311
-6.34729e-311
-4.52681e-311
-4.15149e-311
-2.76918e-311
3.67135e-311
6.51783e-311
2.04286e-311
-2.96964e-311
-4.63038e-311
-3.79593e-311
-3.99809e-312
-4.00852e-311
-2.01972e-311
-3.73025e-311
-6.2061e-311
-5.04156e-312
-2.12527e-311
-6.52301e-312
-1.10343e-311
2.13649e-311
3.42609e-311
7.14907e-311
9.74996e-311
1.20965e-310
1.51042e-310
1.30734e-310
1.21405e-310
6.19288e-311
-8.17437e-312
-3.37492e-311
-5.29504e-311
-4.25404e-311
-2.18636e-311
-5.50452e-311
-8.22113e-311
-1.57441e-310
-2.20385e-310
-2.00111e-310
-1.17968e-310
-1.51136e-311
2.16801e-311
3.3227e-311
-2.70278e-311
6.95009e-313
-4.22802e-311
5.48015e-311
3.77123e-304
2.84072e-304
1.88445e-304
1.16363e-304
6.91831e-305
4.03685e-305
2.33599e-305
1.34824e-305
7.78524e-306
4.50449e-306
2.61288e-306
1.51928e-306
8.85038e-307
5.16135e-307
3.00993e-307
1.75365e-307
1.01948e-307
5.90971e-308
3.40419e-308
1.95444e-308
1.11175e-308
6.22803e-309
3.42639e-309
1.88444e-309
9.58732e-310
4.81289e-310
2.36342e-310
1.05923e-310
3.80665e-311
2.24663e-311
3.97199e-312
-6.42986e-311
-5.19508e-311
-6.84475e-311
-6.57582e-311
-5.44414e-311
-4.95529e-311
-4.64285e-311
9.8496e-312
3.49647e-311
2.6777e-312
-3.83905e-311
-2.18581e-311
1.79003e-311
5.58054e-312
-2.12428e-311
-4.57039e-311
-5.76278e-311
-4.59632e-311
-6.11035e-312
1.12762e-311
4.92446e-311
4.09147e-311
2.62988e-311
3.74478e-311
4.62724e-311
4.70698e-311
5.57676e-311
6.72756e-311
6.803e-311
7.63728e-311
8.39523e-311
8.1061e-311
5.7919e-311
5.15831e-311
8.97338e-311
7.53074e-311
5.42941e-311
3.76019e-311
2.14643e-311
-7.60347e-311
-1.53483e-310
-1.83383e-310
-1.18356e-310
-5.80032e-311
-7.90592e-311
-1.52382e-310
-1.06219e-310
-1.53949e-310
-6.75964e-311
1.16599e-303
8.93696e-304
6.03515e-304
3.76809e-304
2.24543e-304
1.30262e-304
7.44527e-305
4.22335e-305
2.38834e-305
1.35009e-305
7.64018e-306
4.33123e-306
2.45993e-306
1.39925e-306
7.96641e-307
4.53622e-307
2.58076e-307
1.46588e-307
8.30138e-308
4.68216e-308
2.62827e-308
1.46261e-308
8.04663e-309
4.376e-309
2.34507e-309
1.22212e-309
6.46285e-310
3.2691e-310
1.56209e-310
1.03734e-310
2.6398e-311
-3.59062e-311
-4.84849e-311
-6.65543e-311
-3.41653e-311
-3.70052e-311
-4.72821e-311
-5.28989e-311
-1.01321e-311
2.82385e-311
2.24235e-311
-6.85435e-313
-2.01834e-311
2.30272e-311
1.61906e-311
-3.68946e-311
-4.95326e-311
-2.91878e-311
-2.52524e-311
-1.40866e-311
3.84687e-311
9.01626e-311
6.4178e-311
9.16287e-311
6.62377e-311
5.96985e-311
-1.24618e-311
-6.35448e-311
-9.04833e-311
-1.09764e-310
-1.18123e-310
-7.79994e-311
-5.44146e-311
-1.20044e-311
2.62671e-311
5.29399e-311
-1.89405e-311
-1.314e-311
1.46868e-311
6.34223e-311
1.29575e-310
1.30697e-310
3.32379e-311
1.51006e-311
3.29214e-311
-3.27015e-311
-1.31476e-310
-1.40168e-310
-1.89786e-310
-1.16446e-310
3.46179e-303
2.69097e-303
1.84577e-303
1.16529e-303
6.97333e-304
4.03378e-304
2.28462e-304
1.27763e-304
7.09444e-305
3.92603e-305
2.17041e-305
1.20031e-305
6.64545e-306
3.68411e-306
2.04482e-306
1.1358e-306
6.30901e-307
3.50197e-307
1.94042e-307
1.07231e-307
5.90478e-308
3.23549e-308
1.75865e-308
9.4473e-309
5.0284e-309
2.63286e-309
1.35708e-309
6.86396e-310
3.65165e-310
2.09589e-310
1.14087e-310
-1.87209e-311
-2.61191e-311
-4.85593e-311
-4.10794e-311
-2.35963e-311
-1.99099e-311
-3.52467e-311
-3.66037e-312
1.51027e-311
1.15929e-311
2.81037e-311
2.74033e-311
3.50528e-311
2.78812e-311
-2.35619e-311
-3.62726e-311
-3.52563e-311
-2.63464e-311
1.20497e-311
3.59829e-311
7.74528e-311
7.70227e-311
1.05847e-310
1.45621e-310
1.27161e-310
8.34132e-311
3.41402e-311
8.61022e-312
-6.2078e-311
-1.42275e-310
-1.94823e-310
-1.5991e-310
-9.95905e-311
-5.39832e-311
-3.23224e-311
-8.92614e-311
-1.68389e-310
-2.35048e-310
-2.47369e-310
-1.49913e-310
-7.12106e-311
-4.60783e-311
-3.51009e-311
-4.09212e-312
-4.5933e-311
-1.28719e-310
-1.96927e-310
-1.51018e-310
-1.57609e-310
9.94511e-303
7.81959e-303
5.43571e-303
3.46756e-303
2.08547e-303
1.2051e-303
6.77924e-304
3.74671e-304
2.04751e-304
1.1114e-304
6.01088e-305
3.24593e-305
1.75248e-305
9.46682e-306
5.11838e-306
2.76966e-306
1.4995e-306
8.11913e-307
4.39306e-307
2.37337e-307
1.27897e-307
6.86973e-308
3.67139e-308
1.94958e-308
1.0235e-308
5.29758e-309
2.69694e-309
1.32291e-309
6.64438e-310
3.85818e-310
1.97431e-310
6.69506e-311
2.15059e-311
-4.55991e-311
-4.28768e-311
-3.73583e-311
3.18168e-312
-4.71564e-311
1.11519e-311
-4.81529e-312
-1.93325e-311
1.08203e-311
8.58369e-313
3.33434e-311
6.20256e-311
-3.054e-311
-2.18427e-311
1.01468e-312
-1.79954e-311
6.40416e-312
3.11457e-311
2.77899e-311
2.88187e-311
3.93446e-311
5.01068e-311
7.38215e-311
8.33307e-311
1.0887e-310
1.89099e-310
1.80941e-310
1.03482e-310
1.03577e-311
-5.51793e-311
-4.53524e-311
3.08028e-312
5.88829e-311
9.36394e-311
5.11445e-311
-1.04343e-310
-2.61805e-310
-3.32185e-310
-3.0604e-310
-2.75951e-310
-2.5048e-310
-1.66872e-310
-1.65182e-310
-1.88248e-310
-2.4293e-310
-2.48975e-310
-2.39808e-310
2.78106e-302
2.20717e-302
1.55177e-302
9.99202e-303
6.04035e-303
3.49056e-303
1.95357e-303
1.06908e-303
5.76091e-304
3.07262e-304
1.62817e-304
8.59475e-305
4.52819e-305
2.38407e-305
1.25531e-305
6.6129e-306
3.48558e-306
1.83797e-306
9.69192e-307
5.10778e-307
2.68841e-307
1.41208e-307
7.38862e-308
3.8487e-308
1.99284e-308
1.02126e-308
5.13683e-309
2.53816e-309
1.231e-309
6.11802e-310
3.13434e-310
1.19662e-310
4.6918e-311
4.04876e-312
-2.54932e-311
-4.30752e-312
3.20408e-311
-2.08548e-311
1.22268e-311
-1.21087e-311
2.88567e-311
1.05024e-311
4.52337e-313
2.78253e-312
-4.41221e-313
-5.04899e-311
-4.66333e-311
-1.34677e-311
-2.19741e-311
3.17467e-311
2.62069e-311
4.8697e-311
-2.32571e-312
-2.58538e-311
-1.1898e-311
-1.13354e-310
-1.39165e-310
-1.1316e-310
-1.90399e-311
6.06006e-311
1.85913e-310
1.88027e-310
8.25504e-311
1.40391e-311
-1.34276e-311
6.48857e-311
2.1479e-310
3.21578e-310
3.02701e-310
1.90779e-310
5.40242e-311
-9.75913e-311
-1.75098e-310
-1.96773e-310
-2.07986e-310
-2.65994e-310
-3.7746e-310
-3.00952e-310
-3.08263e-310
-3.42073e-310
7.60633e-302
6.08295e-302
4.31767e-302
2.80309e-302
1.70283e-302
9.84622e-303
5.48892e-303
2.97877e-303
1.58538e-303
8.322e-304
4.32687e-304
2.23543e-304
1.15032e-304
5.90591e-305
3.02894e-305
1.553e-305
7.964e-306
4.08557e-306
2.09657e-306
1.07592e-306
5.51947e-307
2.82846e-307
1.44617e-307
7.3712e-308
3.74094e-308
1.88737e-308
9.40659e-309
4.67214e-309
2.27448e-309
1.14512e-309
5.53108e-310
2.2878e-310
6.29587e-311
8.84087e-312
-3.90721e-311
-3.72028e-311
-4.45201e-313
-2.459e-311
-6.69938e-312
2.2533e-311
6.99942e-311
1.39779e-311
-1.44073e-311
2.88351e-311
-7.55161e-312
-2.60701e-311
-5.15536e-311
-3.99493e-311
-2.76166e-311
1.42369e-312
-2.43586e-312
3.78776e-311
3.77105e-311
9.6966e-311
6.69628e-311
-3.67628e-311
-1.05421e-310
-2.24175e-310
-2.91319e-310
-2.89939e-310
-1.32063e-310
-2.7165e-311
5.18006e-311
2.49969e-311
-5.76676e-311
-1.13324e-310
-1.11448e-310
6.34757e-312
1.78946e-310
2.57264e-310
2.66647e-310
2.01639e-310
1.12829e-310
-1.12886e-311
-1.34717e-310
-2.23746e-310
-3.3886e-310
-3.30963e-310
-3.04604e-310
-3.2047e-310
2.0426e-301
1.64377e-301
1.17611e-301
7.68976e-302
4.69232e-302
2.71559e-302
1.50911e-302
8.13137e-303
4.28048e-303
2.21464e-303
1.13141e-303
5.72815e-304
2.88198e-304
1.44401e-304
7.2168e-305
3.60182e-305
1.79663e-305
8.96161e-306
4.47119e-306
2.2315e-306
1.11394e-306
5.55939e-307
2.77194e-307
1.37991e-307
6.8471e-308
3.38161e-308
1.66097e-308
8.10087e-309
3.94374e-309
1.92794e-309
9.04953e-310
3.96762e-310
1.79724e-310
-1.88494e-311
-4.26425e-311
-6.16656e-311
-6.07123e-311
-3.84146e-312
-1.05508e-312
1.69059e-311
3.46795e-311
3.50311e-311
5.81001e-312
1.05459e-310
7.46331e-311
7.55631e-312
-3.97382e-311
-4.89119e-311
-2.67849e-311
-3.78738e-311
-7.53006e-311
-6.30553e-311
-1.80561e-311
3.46996e-311
1.11791e-310
1.46822e-310
1.53529e-310
7.17623e-311
-6.41708e-311
-1.97872e-310
-2.60568e-310
-2.13362e-310
-4.34292e-311
8.51602e-311
9.43185e-311
1.63501e-311
-1.15144e-310
-2.43836e-310
-2.23479e-310
-1.37627e-310
-1.21749e-311
3.80609e-311
3.49899e-311
2.1303e-311
-2.81691e-312
-5.59607e-311
-1.37129e-310
-2.16216e-310
-2.26223e-310
-2.19727e-310
5.40272e-301
4.37019e-301
3.1478e-301
2.07063e-301
1.26852e-301
7.34825e-302
4.07323e-302
2.18121e-302
1.13709e-302
5.80653e-303
2.91883e-303
1.45005e-303
7.14152e-304
3.49548e-304
1.70361e-304
8.28008e-305
4.01796e-305
1.9483e-305
9.44614e-306
4.58104e-306
2.22262e-306
1.07873e-306
5.23624e-307
2.54043e-307
1.2313e-307
5.94977e-308
2.86145e-308
1.36984e-308
6.55913e-309
3.11639e-309
1.463e-309
6.83456e-310
2.94932e-310
6.34114e-311
-2.76913e-311
-4.32952e-311
-5.09279e-311
2.68644e-312
2.56329e-311
9.75164e-312
-9.73309e-312
6.54958e-312
4.28112e-311
1.35295e-310
8.34127e-311
2.86121e-313
-3.0507e-311
-1.32508e-312
-5.74098e-312
-2.64032e-311
-1.72134e-311
-8.22164e-311
-1.35719e-310
-1.40756e-310
-1.00907e-310
-3.27996e-311
4.70616e-311
1.18039e-310
1.75969e-310
1.48786e-310
3.247e-311
-4.31866e-311
-5.38231e-311
6.21052e-311
1.65769e-310
2.69171e-310
2.86897e-310
1.28733e-310
-3.38294e-311
-1.1523e-310
-1.15932e-310
-1.21048e-310
-1.47226e-310
-6.03392e-311
-4.91554e-311
-1.10644e-310
-7.61753e-311
-1.10355e-310
-2.12943e-310
-1.38515e-310
1.41123e-300
1.14636e-300
8.3031e-301
5.48986e-301
3.37481e-301
1.95674e-301
1.08236e-301
5.76504e-302
2.97951e-302
1.5036e-302
7.44713e-303
3.63524e-303
1.75483e-303
8.40017e-304
3.99631e-304
1.89292e-304
8.94012e-305
4.21502e-305
1.98564e-305
9.35292e-306
4.40714e-306
2.07797e-306
9.80447e-307
4.62864e-307
2.18545e-307
1.03096e-307
4.85287e-308
2.27951e-308
1.06695e-308
4.99733e-309
2.32061e-309
1.06221e-309
4.80855e-310
1.90952e-310
6.0286e-311
6.81308e-312
-1.18309e-311
-1.60357e-312
2.01819e-311
-4.27291e-311
-6.00935e-311
-2.45015e-311
2.16293e-311
7.46574e-311
4.84013e-311
5.55141e-314
-3.45748e-311
-2.4172e-311
-1.21257e-311
5.4061e-311
8.63993e-311
6.5211e-311
-2.15512e-312
-5.51618e-311
-1.41334e-310
-2.44837e-310
-2.80961e-310
-2.1478e-310
-4.20348e-311
9.41475e-311
1.2392e-310
8.44767e-311
-1.24285e-311
-9.82111e-311
-4.36565e-311
1.01607e-310
2.85179e-310
3.22518e-310
2.91073e-310
2.55545e-310
1.13072e-310
4.00209e-311
-4.08265e-312
-2.12761e-311
-3.58325e-311
-1.02966e-311
-1.73546e-311
-5.35732e-311
-2.68358e-312
-4.30287e-311
3.64822e-300
2.9738e-300
2.16389e-300
1.4369e-300
8.85918e-301
5.14085e-301
2.83855e-301
1.50487e-301
7.7182e-302
3.85379e-302
1.88317e-302
9.04501e-303
4.28551e-303
2.00891e-303
9.34014e-304
4.31592e-304
1.98548e-304
9.10661e-305
4.16935e-305
1.90736e-305
8.72551e-306
3.99395e-306
1.82998e-306
8.39443e-307
3.85459e-307
1.77128e-307
8.13428e-308
3.7387e-308
1.71122e-308
7.84121e-309
3.61977e-309
1.6455e-309
7.38734e-310
2.85971e-310
1.17752e-310
9.57079e-311
4.47248e-311
1.84598e-311
1.33682e-311
-1.95401e-311
-4.21945e-311
-2.09069e-311
6.9562e-312
1.32802e-311
3.86207e-311
-2.3444e-311
-6.09208e-311
-8.74625e-311
-9.44182e-311
-1.732e-311
6.39201e-311
1.48529e-310
1.99204e-310
2.38741e-310
1.82179e-310
2.79527e-311
-1.1565e-310
-2.28877e-310
-2.12919e-310
-1.56181e-310
-4.85673e-311
2.88872e-311
7.82331e-311
-6.45561e-311
-1.31671e-310
-1.57445e-310
-7.52726e-311
2.52491e-311
1.72224e-310
2.11278e-310
2.26264e-310
1.8759e-310
1.76628e-310
2.34847e-310
2.04577e-310
8.13897e-311
5.51916e-311
2.17259e-311
2.77337e-311
1.09419e-310
9.35071e-300
7.6439e-300
5.58336e-300
3.72093e-300
2.29984e-300
1.33551e-300
7.36276e-301
3.88752e-301
1.9804e-301
9.79497e-302
4.72841e-302
2.23779e-302
1.04215e-302
4.79088e-303
2.17982e-303
9.83845e-304
4.41338e-304
1.97095e-304
8.77543e-305
3.90025e-305
1.73226e-305
7.69518e-306
3.42161e-306
1.5236e-306
6.79568e-307
3.03652e-307
1.35858e-307
6.08708e-308
2.7253e-308
1.22198e-308
5.52457e-309
2.492e-309
1.06578e-309
4.02983e-310
1.78376e-310
1.70932e-310
1.1e-310
4.8451e-312
3.42787e-311
-1.00615e-311
-1.54702e-311
-2.40334e-312
2.22917e-311
4.99805e-311
8.88185e-311
4.17059e-312
-1.40208e-311
-9.57085e-311
-1.6655e-310
-1.48824e-310
-9.79589e-311
1.14411e-311
1.27517e-310
2.25452e-310
2.98948e-310
3.08295e-310
2.57636e-310
1.33898e-310
-1.77212e-311
-1.68481e-310
-1.68598e-310
-4.39793e-311
8.82176e-311
1.77322e-310
1.03997e-310
-1.63049e-311
-1.5181e-310
-2.24976e-310
-1.26504e-310
-3.90086e-311
5.88578e-311
1.40923e-310
1.8538e-310
2.81428e-310
2.53464e-310
1.18093e-310
2.87707e-311
2.59955e-311
5.35821e-311
2.50048e-311
2.37978e-299
1.94996e-299
1.42881e-299
9.55055e-300
5.91531e-300
3.43702e-300
1.89234e-300
9.95609e-301
5.04182e-301
2.47272e-301
1.18071e-301
5.51364e-302
2.52764e-302
1.14127e-302
5.08934e-303
2.24688e-303
9.84135e-304
4.28435e-304
1.85688e-304
8.02387e-305
3.46147e-305
1.49252e-305
6.43883e-306
2.78163e-306
1.2041e-306
5.2252e-307
2.27291e-307
9.91441e-308
4.33562e-308
1.89657e-308
8.34262e-309
3.70245e-309
1.62491e-309
6.33673e-310
2.53215e-310
1.9996e-310
1.1706e-310
3.47271e-311
1.02672e-311
2.74135e-312
-2.31703e-311
-7.59662e-312
3.2749e-311
6.74655e-311
1.14258e-310
5.5433e-311
4.08636e-311
2.13871e-311
-1.02458e-310
-1.63625e-310
-1.38467e-310
-9.61973e-311
-7.33867e-311
-2.58272e-311
3.49966e-311
1.21965e-310
1.72693e-310
1.70949e-310
1.13977e-310
-2.39144e-311
-1.37659e-310
-1.32259e-310
1.72887e-311
1.92501e-310
2.62487e-310
2.07369e-310
9.43264e-311
-5.49408e-311
-1.17853e-310
-9.67566e-311
-4.72939e-311
6.01075e-311
1.96223e-310
2.42152e-310
2.63692e-310
2.54096e-310
1.23935e-310
1.85165e-310
1.44375e-310
6.06715e-311
6.02146e-299
4.94337e-299
3.63161e-299
2.43347e-299
1.50982e-299
8.77679e-300
4.82666e-300
2.53161e-300
1.27536e-300
6.20859e-301
2.93589e-301
1.35464e-301
6.1223e-302
2.7193e-302
1.19041e-302
5.14903e-303
2.20548e-303
9.37321e-304
3.95965e-304
1.66539e-304
6.98429e-305
2.92468e-305
1.22445e-305
5.1312e-306
2.15448e-306
9.0712e-307
3.83172e-307
1.62474e-307
6.9116e-308
2.94816e-308
1.2646e-308
5.45317e-309
2.34968e-309
9.70988e-310
4.12792e-310
2.23625e-310
1.26413e-310
6.83375e-311
-1.26601e-311
-6.316e-312
-4.41279e-311
-1.2884e-311
-3.0687e-313
4.62066e-311
8.88545e-311
1.08816e-310
1.32861e-310
8.3083e-311
2.00874e-311
-5.7679e-311
2.50748e-312
-3.37023e-311
-4.0182e-311
-5.79218e-311
-1.16598e-310
-1.37466e-310
-1.05059e-310
-6.64094e-311
-1.90545e-311
1.53751e-311
-1.45587e-310
-2.09901e-310
-1.9296e-310
-3.45566e-311
1.16062e-310
2.08877e-310
2.23614e-310
1.48805e-310
9.6641e-311
3.53166e-311
7.83704e-311
1.1041e-310
2.2162e-310
2.512e-310
1.78351e-310
2.02229e-310
1.37775e-310
1.61104e-310
8.37095e-311
4.19976e-311
1.51631e-298
1.24678e-298
9.1789e-299
6.16314e-299
3.82927e-299
2.22684e-299
1.22337e-299
6.39951e-300
3.20934e-300
1.55219e-300
7.2772e-301
3.32209e-301
1.48238e-301
6.48734e-302
2.79255e-302
1.18544e-302
4.97394e-303
2.0671e-303
8.52483e-304
3.49486e-304
1.42662e-304
5.80763e-305
2.36126e-305
9.60183e-306
3.91014e-306
1.5965e-306
6.54223e-307
2.69217e-307
1.1131e-307
4.62052e-308
1.93581e-308
8.14871e-309
3.42855e-309
1.4394e-309
6.02623e-310
3.16883e-310
2.01794e-310
8.83604e-311
1.75667e-312
4.53275e-313
-2.86019e-311
-3.80887e-311
1.62325e-311
4.63766e-311
5.84392e-311
1.2779e-310
1.27081e-310
9.70509e-311
2.39997e-311
1.30875e-311
6.25156e-311
7.59288e-311
7.51662e-311
8.66925e-311
2.00791e-311
-6.7697e-311
-1.18953e-310
-1.40144e-310
-1.35582e-310
-7.05477e-311
-1.46157e-310
-1.64799e-310
-2.29438e-310
-2.08462e-310
-1.41605e-310
1.83913e-311
6.72873e-311
1.28002e-310
2.20726e-310
2.49038e-310
2.45905e-310
1.91342e-310
2.86532e-310
2.76494e-310
2.08833e-310
1.2935e-310
4.80196e-311
-8.92426e-312
-1.17773e-311
1.19929e-311
3.80336e-298
3.13133e-298
2.30932e-298
1.55317e-298
9.66132e-299
5.61998e-299
3.08473e-299
1.60991e-299
8.04207e-300
3.86751e-300
1.79965e-300
8.13855e-301
3.59068e-301
1.55071e-301
6.57486e-302
2.74399e-302
1.12989e-302
4.60007e-303
1.85533e-303
7.42666e-304
2.95556e-304
1.17133e-304
4.63038e-305
1.82868e-305
7.22613e-306
2.86128e-306
1.13684e-306
4.53748e-307
1.82085e-307
7.3514e-308
2.99023e-308
1.21981e-308
5.02741e-309
2.06548e-309
8.98285e-310
4.55806e-310
2.82419e-310
1.50649e-310
7.10322e-311
3.11577e-311
1.76274e-311
-1.68348e-311
6.09799e-311
3.73069e-311
9.38813e-311
1.18712e-310
1.13572e-310
9.804e-311
3.838e-311
-8.8747e-311
-9.8158e-311
-1.021e-311
6.80606e-311
1.40824e-310
1.43389e-310
1.01688e-310
7.80144e-311
-2.08274e-311
-4.11254e-311
-6.49067e-311
-8.58529e-311
-8.05805e-311
-9.85317e-311
-1.72749e-310
-1.79115e-310
-1.31255e-310
-8.92666e-311
-1.06079e-311
1.41616e-310
2.10005e-310
2.34424e-310
2.00338e-310
2.69328e-310
2.50649e-310
1.68352e-310
1.44216e-310
5.96929e-311
4.21694e-311
9.01536e-311
7.3838e-311
9.50943e-298
7.83737e-298
5.78816e-298
3.89821e-298
2.42712e-298
1.41216e-298
7.74513e-299
4.03413e-299
2.00839e-299
9.6113e-300
4.44325e-300
1.9929e-300
8.70533e-301
3.71575e-301
1.55435e-301
6.389e-302
2.58655e-302
1.03359e-302
4.08485e-303
1.59962e-303
6.21785e-304
2.40323e-304
9.25162e-305
3.55338e-305
1.36395e-305
5.24105e-306
2.01934e-306
7.8137e-307
3.04012e-307
1.1912e-307
4.70321e-308
1.86973e-308
7.49365e-309
2.99486e-309
1.27887e-309
5.91447e-310
3.2891e-310
1.73364e-310
9.73997e-311
6.10824e-311
6.17516e-311
8.22755e-311
7.30961e-311
1.0444e-310
1.18191e-310
9.20183e-311
1.2164e-310
1.10621e-310
2.77028e-311
-8.5586e-311
-1.74486e-310
-9.89041e-311
-6.04773e-312
6.54404e-311
9.32226e-311
1.08204e-310
1.03317e-310
6.14152e-311
1.00654e-311
-5.55355e-311
-8.60895e-311
-1.25224e-310
-1.01929e-310
-1.27367e-310
-1.34679e-310
-8.73391e-311
-7.4169e-311
-8.67596e-311
-1.77634e-311
4.18351e-311
4.48518e-311
6.76096e-311
9.92333e-311
7.10277e-311
9.15402e-311
5.08784e-311
8.8182e-311
1.67311e-310
1.5779e-310
2.21529e-310
2.37141e-297
1.9561e-297
1.44631e-297
9.75133e-298
6.07602e-298
3.53572e-298
1.9379e-298
1.00766e-298
5.00214e-299
2.38374e-299
1.0958e-299
4.87994e-300
2.11319e-300
8.92767e-301
3.69045e-301
1.49658e-301
5.96797e-302
2.34528e-302
9.10057e-303
3.49353e-303
1.32911e-303
5.02006e-304
1.88565e-304
7.05612e-305
2.63506e-305
9.83806e-306
3.6789e-306
1.38039e-306
5.2059e-307
1.97678e-307
7.56783e-308
2.92069e-308
1.1392e-308
4.50192e-309
1.81745e-309
7.80577e-310
3.98454e-310
2.27838e-310
1.32217e-310
5.07217e-311
4.13325e-311
4.83527e-311
1.57117e-311
8.02161e-311
6.20393e-311
8.74231e-311
9.93117e-311
1.24299e-310
7.08541e-311
-3.38498e-311
-1.54469e-310
-1.21277e-310
-7.33231e-311
-6.35605e-311
-8.46974e-312
2.88921e-311
2.25808e-311
2.62765e-311
1.19865e-311
-4.99277e-311
-9.20302e-311
-1.57318e-310
-1.38829e-310
-9.19785e-311
-3.43523e-311
1.59947e-312
1.38243e-311
-2.60927e-311
-1.81761e-311
1.14788e-311
-2.16339e-312
-8.21493e-312
-4.99515e-311
-7.64064e-311
-2.96454e-311
3.28782e-311
6.51654e-311
2.41064e-310
2.78779e-310
3.65603e-310
5.90112e-297
4.871e-297
3.60489e-297
2.43266e-297
1.5167e-297
8.82685e-298
4.83509e-298
2.51048e-298
1.24317e-298
5.90302e-299
2.70051e-299
1.19526e-299
5.13717e-300
2.15101e-300
8.79992e-301
3.52662e-301
1.38771e-301
5.37326e-302
2.05132e-302
7.73565e-303
2.88669e-303
1.06781e-303
3.92215e-304
1.43296e-304
5.21668e-305
1.89582e-305
6.89077e-306
2.50996e-306
9.18026e-307
3.37791e-307
1.25288e-307
4.69323e-308
1.7773e-308
6.83177e-309
2.6706e-309
1.11451e-309
5.07022e-310
2.61847e-310
1.30332e-310
1.09481e-311
1.50944e-311
-1.68294e-311
-4.47516e-311
2.23117e-311
3.23898e-311
1.08233e-310
1.24372e-310
1.29227e-310
7.60349e-311
-3.36439e-311
-9.20974e-311
-9.43608e-311
-2.43074e-311
-1.43386e-311
3.20496e-311
2.48471e-312
-2.66572e-311
-1.56909e-311
1.45177e-312
-9.79384e-311
-1.28435e-310
-1.35781e-310
-1.36132e-310
-6.41774e-311
9.05151e-312
7.40074e-311
9.20011e-311
-7.30925e-312
-1.69911e-312
5.54925e-312
2.69046e-311
4.23721e-311
2.89052e-311
-3.23915e-311
5.0479e-311
1.24527e-310
1.95824e-310
2.65359e-310
4.27426e-310
4.727e-310
1.46594e-296
1.21071e-296
8.96685e-297
6.05536e-297
3.77719e-297
2.19839e-297
1.20361e-297
6.24172e-298
3.08443e-298
1.46013e-298
6.65243e-299
2.92899e-299
1.25078e-299
5.19706e-300
2.10715e-300
8.35804e-301
3.25087e-301
1.24252e-301
4.67597e-302
1.73581e-302
6.36736e-303
2.31196e-303
8.32319e-304
2.97593e-304
1.05858e-304
3.75296e-305
1.32861e-305
4.70615e-306
1.67145e-306
5.96533e-307
2.14388e-307
7.78043e-308
2.85829e-308
1.06151e-308
4.02655e-309
1.59184e-309
6.90632e-310
3.46468e-310
2.01061e-310
8.20436e-311
6.59102e-311
-2.76885e-311
-4.9466e-311
1.64818e-311
7.15336e-312
1.01595e-310
1.76212e-310
1.40069e-310
5.33207e-311
-2.89681e-311
-1.00545e-310
-7.24116e-311
1.51285e-311
7.26684e-311
7.09121e-311
5.8269e-311
-1.20416e-311
-2.26246e-311
-1.25625e-311
-9.9465e-311
-1.62342e-310
-1.44721e-310
-1.60557e-310
-7.46884e-311
-2.5705e-311
1.51286e-311
5.02541e-311
-5.1505e-311
-2.54727e-311
-2.69937e-311
-2.528e-313
5.53933e-311
9.01955e-311
7.18367e-311
1.81223e-310
2.69132e-310
3.31416e-310
4.13528e-310
4.89343e-310
6.07138e-310
3.6366e-296
3.00479e-296
2.22676e-296
1.5046e-296
9.38895e-297
5.46478e-297
2.99064e-297
1.54929e-297
7.64264e-298
3.60866e-298
1.63842e-298
7.18175e-299
3.05006e-299
1.25902e-299
5.06552e-300
1.99153e-300
7.66869e-301
2.89827e-301
1.07717e-301
3.9441e-302
1.4252e-302
5.09088e-303
1.80053e-303
6.31548e-304
2.20054e-304
7.62984e-305
2.63728e-305
9.10538e-306
3.1467e-306
1.09096e-306
3.80365e-307
1.33711e-307
4.75266e-308
1.71115e-308
6.25591e-309
2.32558e-309
9.50254e-310
4.27881e-310
1.98314e-310
8.43184e-311
6.04089e-311
-3.66328e-311
-4.73717e-311
-3.58904e-311
-5.44701e-311
4.781e-311
1.50251e-310
1.07708e-310
3.69863e-311
-6.50067e-311
-1.26821e-310
-8.13094e-311
8.63149e-312
7.73404e-311
9.03811e-311
5.94366e-311
1.40695e-312
1.70904e-312
-2.92165e-311
-1.14479e-310
-1.78689e-310
-1.19439e-310
-1.43969e-310
-5.64702e-311
-4.06472e-311
-3.97983e-311
-3.77647e-311
-6.90583e-311
-8.18976e-311
-1.15439e-310
-1.11322e-310
-1.2338e-310
-6.25379e-311
-3.44138e-312
9.35765e-311
2.28001e-310
3.37962e-310
5.11392e-310
5.30648e-310
5.16334e-310
9.01138e-296
7.44844e-296
5.52247e-296
3.73318e-296
2.33026e-296
1.35634e-296
7.41995e-297
3.84055e-297
1.89176e-297
8.91322e-298
4.03503e-298
1.76208e-298
7.44884e-299
3.05767e-299
1.22219e-299
4.76889e-300
1.82061e-300
6.81451e-301
2.50557e-301
9.06594e-302
3.23358e-302
1.13874e-302
3.96568e-303
1.36786e-303
4.68036e-304
1.59125e-304
5.38471e-305
1.81697e-305
6.12579e-306
2.06797e-306
7.00744e-307
2.3896e-307
8.22439e-308
2.86608e-308
1.01382e-308
3.63728e-309
1.37379e-309
5.38604e-310
2.12183e-310
4.84324e-311
-6.30624e-312
-1.05344e-310
-8.88584e-311
-1.12451e-310
-1.0862e-310
4.7861e-311
1.33184e-310
9.71828e-311
7.12545e-311
-5.87013e-311
-1.35688e-310
-1.14133e-310
-2e-311
1.87854e-311
3.80946e-311
6.34231e-311
2.50481e-311
4.58594e-311
-2.94801e-311
-6.25848e-311
-1.37991e-310
-1.08978e-310
-8.88363e-311