/*--------------------------------*- C++ -*----------------------------------*\
  =========                 |
  \\      /  F ield         | OpenFOAM: The Open Source CFD Toolbox
   \\    /   O peration     | Website:  https://openfoam.org
    \\  /    A nd           | Version:  11
     \\/     M anipulation  |
\*---------------------------------------------------------------------------*/
FoamFile
{
    format      ascii;
    class       volScalarField;
    location    "100";
    object      C;
}
// * * * * * * * * * * * * * * * * * * * * * * * * * * * * * * * * * * * * * //

dimensions      [0 0 0 1 0 0 0];

internalField   nonuniform List<scalar> 
427520
(
-4.20842e-301
-4.2869e-301
-4.09486e-301
-3.70654e-301
-3.21438e-301
-2.69332e-301
-2.19513e-301
-1.74966e-301
-1.36964e-301
-1.05636e-301
-8.04623e-302
-6.06282e-302
-4.52435e-302
-3.3463e-302
-2.45418e-302
-1.78524e-302
-1.28821e-302
-9.22103e-303
-6.54696e-303
-4.61004e-303
-3.21876e-303
-2.22785e-303
-1.52818e-303
-1.03853e-303
-6.98994e-304
-4.65775e-304
-3.07154e-304
-2.00368e-304
-1.2924e-304
-8.23862e-305
-5.18769e-305
-3.22489e-305
-1.97799e-305
-1.19625e-305
-7.12893e-306
-4.1832e-306
-2.4151e-306
-1.37063e-306
-7.6381e-307
-4.17322e-307
-2.23015e-307
-1.17311e-307
-6.08259e-308
-3.11312e-308
-1.57304e-308
-7.8464e-309
-3.87664e-309
-1.90236e-309
-9.24987e-310
-4.57714e-310
-2.17577e-310
-1.01457e-310
-5.97388e-311
-4.22465e-311
-2.37186e-311
-1.14354e-311
-8.42961e-312
7.45848e-312
6.72263e-312
1.67848e-311
4.9698e-312
-1.0408e-311
-1.33497e-311
-2.20723e-311
-2.97354e-311
-2.08762e-311
-1.08598e-311
-1.21985e-311
-1.32005e-311
3.13161e-312
1.13757e-311
6.19195e-312
2.59427e-312
4.3933e-312
-3.74465e-313
-1.74761e-311
-1.5195e-311
-1.04876e-311
2.67684e-312
1.12585e-311
-2.5289e-300
-2.20729e-300
-1.91849e-300
-1.6481e-300
-1.39509e-300
-1.16278e-300
-9.5432e-301
-7.71544e-301
-6.14855e-301
-4.83339e-301
-3.75087e-301
-2.87568e-301
-2.1796e-301
-1.63418e-301
-1.21261e-301
-8.90871e-302
-6.48183e-302
-4.6714e-302
-3.33502e-302
-2.35857e-302
-1.65221e-302
-1.14625e-302
-7.87408e-303
-5.35447e-303
-3.60325e-303
-2.39872e-303
-1.57907e-303
-1.02749e-303
-6.60534e-304
-4.19315e-304
-2.62706e-304
-1.6234e-304
-9.88842e-305
-5.933e-305
-3.50383e-305
-2.03507e-305
-1.16144e-305
-6.50664e-306
-3.57357e-306
-1.92022e-306
-1.00512e-306
-5.18963e-307
-2.64502e-307
-1.33181e-307
-6.62729e-308
-3.25977e-308
-1.58641e-308
-7.64545e-309
-3.63579e-309
-1.71617e-309
-8.18173e-310
-3.79497e-310
-1.79049e-310
-9.64315e-311
-4.85201e-311
-2.86024e-311
-2.7773e-312
4.90188e-312
2.11416e-311
2.12905e-311
2.89156e-311
1.28175e-311
1.64661e-311
2.78887e-311
6.95616e-312
-2.27405e-312
-5.93154e-312
-1.46909e-311
-1.49566e-311
-1.43512e-311
-6.49611e-312
-9.84796e-312
1.97463e-312
2.86976e-312
-3.66301e-312
-2.56743e-311
-2.4342e-311
-3.7274e-311
-2.89604e-311
-4.69003e-311
-1.05731e-299
-9.01564e-300
-7.52131e-300
-6.2332e-300
-5.1268e-300
-4.17979e-300
-3.37597e-300
-2.7007e-300
-2.13958e-300
-1.6785e-300
-1.30386e-300
-1.00288e-300
-7.63791e-301
-5.75991e-301
-4.30114e-301
-3.18044e-301
-2.32877e-301
-1.68846e-301
-1.21214e-301
-8.61519e-302
-6.06132e-302
-4.22063e-302
-2.90797e-302
-1.98191e-302
-1.33572e-302
-8.89864e-303
-5.85772e-303
-3.80827e-303
-2.44402e-303
-1.54746e-303
-9.66066e-304
-5.94272e-304
-3.59953e-304
-2.14513e-304
-1.25674e-304
-7.23143e-305
-4.08272e-305
-2.25902e-305
-1.22316e-305
-6.46478e-306
-3.31506e-306
-1.6792e-306
-8.40504e-307
-4.1587e-307
-2.03435e-307
-9.84246e-308
-4.71168e-308
-2.23106e-308
-1.04411e-308
-4.85032e-309
-2.2332e-309
-1.0269e-309
-4.77287e-310
-2.26322e-310
-9.26269e-311
-5.69236e-311
-5.8322e-311
-4.79783e-311
-4.10947e-311
-1.93317e-311
-1.74172e-311
-2.15874e-312
1.51777e-311
1.03975e-311
-3.64303e-312
-1.40248e-311
-3.109e-312
2.20811e-312
-7.95059e-313
-1.14266e-311
-2.8154e-311
-2.85171e-311
-2.42102e-311
-1.14294e-311
-1.35881e-311
-2.57357e-311
-3.1668e-311
-5.17795e-311
-7.20814e-311
-1.0667e-310
-3.51777e-299
-3.03991e-299
-2.53716e-299
-2.08135e-299
-1.68645e-299
-1.35201e-299
-1.07368e-299
-8.45381e-300
-6.60354e-300
-5.11902e-300
-3.93841e-300
-3.00713e-300
-2.27829e-300
-1.71236e-300
-1.27644e-300
-9.43427e-301
-6.91193e-301
-5.01823e-301
-3.6094e-301
-2.5711e-301
-1.81328e-301
-1.26567e-301
-8.74042e-302
-5.96933e-302
-4.03011e-302
-2.68848e-302
-1.77126e-302
-1.15188e-302
-7.38978e-303
-4.67396e-303
-2.91254e-303
-1.7868e-303
-1.07833e-303
-6.39625e-304
-3.72554e-304
-2.12863e-304
-1.1917e-304
-6.52861e-305
-3.49403e-305
-1.82145e-305
-9.1804e-306
-4.574e-306
-2.25323e-306
-1.09766e-306
-5.28888e-307
-2.52089e-307
-1.189e-307
-5.55069e-308
-2.56253e-308
-1.17059e-308
-5.29198e-309
-2.37159e-309
-1.06631e-309
-4.79159e-310
-2.01247e-310
-8.2804e-311
-4.43406e-311
-2.54608e-311
-1.59424e-311
-1.05423e-311
-8.59298e-312
-8.8681e-312
-1.22347e-311
-1.68855e-311
-3.55946e-311
-4.62418e-311
-3.80334e-311
-4.33465e-312
-6.48951e-312
-3.51041e-311
-5.74312e-311
-7.53263e-311
-8.66046e-311
-7.14796e-311
-8.66938e-311
-1.32213e-310
-1.86629e-310
-2.16993e-310
-2.62334e-310
-3.07126e-310
-1.02401e-298
-8.98531e-299
-7.60919e-299
-6.28366e-299
-5.08773e-299
-4.05324e-299
-3.18625e-299
-2.47728e-299
-1.90842e-299
-1.45856e-299
-1.10681e-299
-8.34265e-300
-6.24709e-300
-4.64699e-300
-3.43324e-300
-2.51856e-300
-1.83384e-300
-1.32484e-300
-9.49238e-301
-6.74216e-301
-4.74496e-301
-3.30722e-301
-2.28176e-301
-1.55748e-301
-1.0512e-301
-7.01129e-302
-4.6185e-302
-3.00271e-302
-1.92547e-302
-1.21691e-302
-7.57423e-303
-4.63893e-303
-2.79325e-303
-1.65195e-303
-9.5858e-304
-5.45145e-304
-3.03463e-304
-1.65115e-304
-8.76496e-305
-4.52481e-305
-2.25267e-305
-1.10888e-305
-5.39787e-306
-2.59889e-306
-1.23784e-306
-5.83346e-307
-2.72063e-307
-1.25603e-307
-5.74057e-308
-2.59848e-308
-1.16591e-308
-5.18542e-309
-2.29383e-309
-1.00574e-309
-4.37871e-310
-1.78735e-310
-3.81193e-311
2.79014e-311
3.25111e-311
1.92379e-311
9.67384e-312
-1.57397e-311
-2.35199e-311
-2.52202e-311
-4.76784e-311
-5.57512e-311
-5.09491e-311
-4.56788e-311
-6.32831e-311
-9.3281e-311
-1.39737e-310
-1.88588e-310
-2.47306e-310
-3.15166e-310
-3.94162e-310
-5.0759e-310
-6.36156e-310
-7.97254e-310
-9.47402e-310
-1.0255e-309
-2.72212e-298
-2.41969e-298
-2.0865e-298
-1.74786e-298
-1.4266e-298
-1.13865e-298
-8.92065e-299
-6.88355e-299
-5.24683e-299
-3.95938e-299
-2.9629e-299
-2.20113e-299
-1.62448e-299
-1.19146e-299
-8.68537e-300
-6.29225e-300
-4.52938e-300
-3.23851e-300
-2.29905e-300
-1.61975e-300
-1.13192e-300
-7.84176e-301
-5.38247e-301
-3.65804e-301
-2.45996e-301
-1.63578e-301
-1.07478e-301
-6.97259e-302
-4.46269e-302
-2.81558e-302
-1.74955e-302
-1.06971e-302
-6.42913e-303
-3.79428e-303
-2.19634e-303
-1.24547e-303
-6.90937e-304
-3.74417e-304
-1.97799e-304
-1.01526e-304
-5.01831e-305
-2.45245e-305
-1.18518e-305
-5.66501e-306
-2.67884e-306
-1.25351e-306
-5.80569e-307
-2.66229e-307
-1.20905e-307
-5.4413e-308
-2.42755e-308
-1.07331e-308
-4.71381e-309
-2.04241e-309
-8.84106e-310
-3.71074e-310
-1.33754e-310
-2.37884e-311
2.02154e-312
2.58609e-314
-2.11064e-311
-3.13201e-311
-1.96414e-311
-3.40584e-311
-6.39018e-311
-9.20336e-311
-1.01173e-310
-1.44761e-310
-1.97092e-310
-2.59765e-310
-3.69617e-310
-5.07395e-310
-7.01066e-310
-9.49538e-310
-1.22985e-309
-1.56306e-309
-1.93883e-309
-2.36398e-309
-2.7306e-309
-2.99481e-309
-6.79044e-298
-6.09648e-298
-5.35e-298
-4.55739e-298
-3.76572e-298
-3.02621e-298
-2.37447e-298
-1.82647e-298
-1.38242e-298
-1.03271e-298
-7.63268e-299
-5.59133e-299
-4.06492e-299
-2.93537e-299
-2.10656e-299
-1.50279e-299
-1.06575e-299
-7.51259e-300
-5.26251e-300
-3.6619e-300
-2.53005e-300
-1.73474e-300
-1.17967e-300
-7.95119e-301
-5.3081e-301
-3.50719e-301
-2.29166e-301
-1.47961e-301
-9.43133e-302
-5.92957e-302
-3.67346e-302
-2.24019e-302
-1.34333e-302
-7.91162e-303
-4.57094e-303
-2.58721e-303
-1.43261e-303
-7.74815e-304
-4.08464e-304
-2.09171e-304
-1.03123e-304
-5.02566e-305
-2.42173e-305
-1.15418e-305
-5.44207e-306
-2.53943e-306
-1.17312e-306
-5.36708e-307
-2.43279e-307
-1.09294e-307
-4.86816e-308
-2.15069e-308
-9.40859e-309
-4.08468e-309
-1.74935e-309
-7.28592e-310
-3.03594e-310
-1.24259e-310
-5.73672e-311
-4.98945e-311
-4.40378e-311
-4.43723e-311
-3.44425e-311
-5.95696e-311
-1.03427e-310
-1.9055e-310
-2.79815e-310
-3.86763e-310
-5.39242e-310
-7.74863e-310
-1.07481e-309
-1.46914e-309
-1.97442e-309
-2.61512e-309
-3.41278e-309
-4.35324e-309
-5.3758e-309
-6.43626e-309
-7.37337e-309
-7.99757e-309
-1.6189e-297
-1.46434e-297
-1.30562e-297
-1.13102e-297
-9.4751e-298
-7.6852e-298
-6.0569e-298
-4.6585e-298
-3.51122e-298
-2.60303e-298
-1.9038e-298
-1.37698e-298
-9.86724e-299
-7.01478e-299
-4.95223e-299
-3.47403e-299
-2.42256e-299
-1.67954e-299
-1.15763e-299
-7.9311e-300
-5.3995e-300
-3.6513e-300
-2.45128e-300
-1.6328e-300
-1.07839e-300
-7.05661e-301
-4.57137e-301
-2.92922e-301
-1.85485e-301
-1.15956e-301
-7.14919e-302
-4.34233e-302
-2.59532e-302
-1.52452e-302
-8.79008e-303
-4.96789e-303
-2.7481e-303
-1.48547e-303
-7.83014e-304
-4.01118e-304
-1.97968e-304
-9.65679e-305
-4.65725e-305
-2.22146e-305
-1.0484e-305
-4.89733e-306
-2.26529e-306
-1.03804e-306
-4.71451e-307
-2.12316e-307
-9.48295e-308
-4.20153e-308
-1.84649e-308
-8.04981e-309
-3.4719e-309
-1.49041e-309
-6.25071e-310
-2.58664e-310
-1.30198e-310
-7.93486e-311
-5.23221e-311
-7.75193e-311
-1.18283e-310
-1.97726e-310
-3.07649e-310
-4.658e-310
-6.81734e-310
-9.84535e-310
-1.4073e-309
-1.9874e-309
-2.77651e-309
-3.80283e-309
-5.12332e-309
-6.81535e-309
-8.88298e-309
-1.12674e-308
-1.38518e-308
-1.6361e-308
-1.84632e-308
-1.97881e-308
-3.7382e-297
-3.39992e-297
-3.07434e-297
-2.70563e-297
-2.29803e-297
-1.88277e-297
-1.49257e-297
-1.14989e-297
-8.64778e-298
-6.37448e-298
-4.62159e-298
-3.30516e-298
-2.33692e-298
-1.63654e-298
-1.13668e-298
-7.83814e-299
-5.36986e-299
-3.65668e-299
-2.47566e-299
-1.66649e-299
-1.11526e-299
-7.4185e-300
-4.90298e-300
-3.21813e-300
-2.0965e-300
-1.3547e-300
-8.67595e-301
-5.5024e-301
-3.45263e-301
-2.14132e-301
-1.31125e-301
-7.91907e-302
-4.71119e-302
-2.75745e-302
-1.58573e-302
-8.94725e-303
-4.94582e-303
-2.67399e-303
-1.41114e-303
-7.24503e-304
-3.58927e-304
-1.75738e-304
-8.50725e-305
-4.07345e-305
-1.93009e-305
-9.05395e-306
-4.20687e-306
-1.93718e-306
-8.84531e-307
-4.0072e-307
-1.80207e-307
-8.04888e-308
-3.57394e-308
-1.57794e-308
-6.93713e-309
-3.04436e-309
-1.32268e-309
-5.8761e-310
-2.97937e-310
-1.95812e-310
-1.71592e-310
-2.17466e-310
-3.23338e-310
-4.91192e-310
-7.58213e-310
-1.12412e-309
-1.65304e-309
-2.40032e-309
-3.47073e-309
-4.93228e-309
-6.91611e-309
-9.5232e-309
-1.289e-308
-1.71107e-308
-2.21928e-308
-2.79496e-308
-3.39865e-308
-3.96962e-308
-4.43275e-308
-4.71635e-308
-8.44487e-297
-7.71125e-297
-7.05939e-297
-6.30303e-297
-5.42331e-297
-4.48751e-297
-3.57985e-297
-2.76498e-297
-2.07726e-297
-1.52455e-297
-1.09724e-297
-7.76916e-298
-5.42637e-298
-3.74669e-298
-2.56174e-298
-1.73683e-298
-1.16885e-298
-7.81389e-299
-5.19173e-299
-3.42951e-299
-2.25262e-299
-1.47119e-299
-9.55227e-300
-6.16405e-300
-3.9515e-300
-2.51513e-300
-1.58845e-300
-9.94654e-301
-6.16997e-301
-3.78786e-301
-2.29908e-301
-1.3781e-301
-8.14805e-302
-4.74596e-302
-2.71964e-302
-1.53111e-302
-8.45588e-303
-4.57365e-303
-2.41801e-303
-1.24562e-303
-6.2053e-304
-3.0555e-304
-1.48777e-304
-7.16685e-305
-3.41722e-305
-1.6136e-305
-7.54985e-306
-3.50234e-306
-1.61188e-306
-7.36466e-307
-3.34285e-307
-1.50857e-307
-6.77472e-308
-3.03022e-308
-1.35101e-308
-6.01836e-309
-2.69564e-309
-1.23744e-309
-6.50622e-310
-4.32672e-310
-4.22764e-310
-5.12504e-310
-7.4425e-310
-1.12935e-309
-1.73322e-309
-2.60554e-309
-3.87204e-309
-5.67409e-309
-8.22447e-309
-1.17627e-308
-1.66089e-308
-2.30592e-308
-3.13808e-308
-4.17285e-308
-5.39217e-308
-6.74389e-308
-8.12468e-308
-9.39015e-308
-1.03808e-307
-1.09692e-307
-1.88085e-296
-1.7223e-296
-1.59377e-296
-1.44148e-296
-1.25498e-296
-1.04802e-296
-8.41134e-297
-6.51493e-297
-4.89255e-297
-3.57846e-297
-2.55942e-297
-1.79631e-297
-1.24077e-297
-8.45526e-298
-5.6959e-298
-3.79929e-298
-2.51255e-298
-1.64909e-298
-1.07505e-298
-6.96501e-299
-4.48626e-299
-2.8735e-299
-1.83031e-299
-1.15926e-299
-7.29927e-300
-4.56728e-300
-2.83855e-300
-1.75115e-300
-1.07155e-300
-6.49825e-301
-3.90167e-301
-2.31693e-301
-1.35921e-301
-7.86737e-302
-4.48718e-302
-2.51834e-302
-1.38873e-302
-7.51262e-303
-3.97932e-303
-2.05777e-303
-1.03178e-303
-5.11514e-304
-2.50845e-304
-1.21742e-304
-5.85043e-305
-2.78541e-305
-1.31463e-305
-6.15466e-306
-2.86016e-306
-1.32032e-306
-6.05907e-307
-2.7666e-307
-1.25811e-307
-5.70414e-308
-2.58056e-308
-1.16839e-308
-5.34333e-309
-2.53645e-309
-1.32459e-309
-9.00677e-310
-8.68559e-310
-1.12143e-309
-1.64605e-309
-2.51281e-309
-3.84286e-309
-5.82938e-309
-8.75953e-309
-1.30103e-308
-1.90572e-308
-2.75703e-308
-3.92491e-308
-5.47804e-308
-7.4752e-308
-9.93319e-308
-1.27967e-307
-1.5913e-307
-1.90195e-307
-2.17805e-307
-2.38686e-307
-2.50914e-307
-4.1541e-296
-3.81132e-296
-3.55984e-296
-3.25639e-296
-2.86475e-296
-2.41206e-296
-1.94662e-296
-1.5118e-296
-1.13519e-296
-8.2794e-297
-5.88968e-297
-4.1014e-297
-2.80465e-297
-1.88835e-297
-1.2546e-297
-8.24049e-298
-5.3591e-298
-3.45514e-298
-2.21063e-298
-1.40472e-298
-8.87056e-299
-5.56919e-299
-3.47721e-299
-2.15935e-299
-1.33369e-299
-8.19136e-300
-5.00137e-300
-3.0343e-300
-1.82814e-300
-1.09303e-300
-6.47969e-301
-3.80506e-301
-2.21099e-301
-1.26977e-301
-7.19821e-302
-4.0226e-302
-2.21287e-302
-1.19647e-302
-6.34696e-303
-3.29428e-303
-1.66281e-303
-8.30312e-304
-4.10337e-304
-2.0079e-304
-9.73351e-305
-4.67701e-305
-2.22896e-305
-1.05428e-305
-4.95271e-306
-2.31253e-306
-1.0741e-306
-4.96737e-307
-2.28972e-307
-1.05315e-307
-4.84198e-308
-2.23324e-308
-1.04124e-308
-5.03018e-309
-2.68571e-309
-1.8502e-309
-1.84528e-309
-2.39678e-309
-3.53323e-309
-5.42755e-309
-8.39343e-309
-1.2883e-308
-1.96107e-308
-2.94819e-308
-4.37285e-308
-6.38436e-308
-9.1468e-308
-1.28233e-307
-1.753e-307
-2.32783e-307
-2.9901e-307
-3.69947e-307
-4.39203e-307
-4.99145e-307
-5.43172e-307
-5.68515e-307
-9.13733e-296
-8.39427e-296
-7.90295e-296
-7.30036e-296
-6.48039e-296
-5.49527e-296
-4.45628e-296
-3.46917e-296
-2.60484e-296
-1.89518e-296
-1.34178e-296
-9.27907e-297
-6.2883e-297
-4.18773e-297
-2.74711e-297
-1.7787e-297
-1.13868e-297
-7.21774e-298
-4.53544e-298
-2.82808e-298
-1.75134e-298
-1.0778e-298
-6.59478e-299
-4.01336e-299
-2.42965e-299
-1.46328e-299
-8.76638e-300
-5.22291e-300
-3.09341e-300
-1.82037e-300
-1.06363e-300
-6.16555e-301
-3.54238e-301
-2.01512e-301
-1.13365e-301
-6.29924e-302
-3.45256e-302
-1.86383e-302
-9.89333e-303
-5.15067e-303
-2.61599e-303
-1.31541e-303
-6.55073e-304
-3.23227e-304
-1.58097e-304
-7.66962e-305
-3.69247e-305
-1.76538e-305
-8.38771e-306
-3.96342e-306
-1.86415e-306
-8.73529e-307
-4.08225e-307
-1.90494e-307
-8.89157e-308
-4.16558e-308
-1.97258e-308
-9.68473e-309
-5.30028e-309
-3.71861e-309
-3.73271e-309
-4.9362e-309
-7.41953e-309
-1.15618e-308
-1.81313e-308
-2.82513e-308
-4.35539e-308
-6.62952e-308
-9.9344e-308
-1.46222e-307
-2.10776e-307
-2.96668e-307
-4.06213e-307
-5.3913e-307
-6.9074e-307
-8.50923e-307
-1.00456e-306
-1.13451e-306
-1.22741e-306
-1.28021e-306
-2.00761e-295
-1.84589e-295
-1.74952e-295
-1.62957e-295
-1.45758e-295
-1.24344e-295
-1.01244e-295
-7.89754e-296
-5.9294e-296
-4.30474e-296
-3.03503e-296
-2.08601e-296
-1.40233e-296
-9.24745e-297
-5.99668e-297
-3.83219e-297
-2.41786e-297
-1.50852e-297
-9.31946e-298
-5.70761e-298
-3.46871e-298
-2.09357e-298
-1.25575e-298
-7.48942e-299
-4.44318e-299
-2.62273e-299
-1.54057e-299
-9.00463e-300
-5.23645e-300
-3.0287e-300
-1.74148e-300
-9.94846e-301
-5.64199e-301
-3.17363e-301
-1.76881e-301
-9.75684e-302
-5.31991e-302
-2.86337e-302
-1.51893e-302
-7.92311e-303
-4.04493e-303
-2.04649e-303
-1.02637e-303
-5.1044e-304
-2.51835e-304
-1.2332e-304
-5.99706e-305
-2.89803e-305
-1.39261e-305
-6.65952e-306
-3.17178e-306
-1.50593e-306
-7.13507e-307
-3.37754e-307
-1.59995e-307
-7.60893e-308
-3.66282e-308
-1.82863e-308
-1.01784e-308
-7.29657e-309
-7.5267e-309
-1.01695e-308
-1.55057e-308
-2.45792e-308
-3.91057e-308
-6.17701e-308
-9.64507e-308
-1.48377e-307
-2.24337e-307
-3.32491e-307
-4.81749e-307
-6.80275e-307
-9.32825e-307
-1.23759e-306
-1.58238e-306
-1.94255e-306
-2.28279e-306
-2.56493e-306
-2.76211e-306
-2.87306e-306
-4.41469e-295
-4.06113e-295
-3.87047e-295
-3.63002e-295
-3.26741e-295
-2.80118e-295
-2.28837e-295
-1.7879e-295
-1.34213e-295
-9.72514e-296
-6.83149e-296
-4.67003e-296
-3.11726e-296
-2.03775e-296
-1.30787e-296
-8.25996e-297
-5.14318e-297
-3.16269e-297
-1.92347e-297
-1.15845e-297
-6.91687e-298
-4.09828e-298
-2.41163e-298
-1.41039e-298
-8.20232e-299
-4.74571e-299
-2.73259e-299
-1.56618e-299
-8.93576e-300
-5.07464e-300
-2.86788e-300
-1.61223e-300
-9.01085e-301
-5.00347e-301
-2.75787e-301
-1.50748e-301
-8.16255e-302
-4.37286e-302
-2.31441e-302
-1.2077e-302
-6.18801e-303
-3.14591e-303
-1.58714e-303
-7.94811e-304
-3.95219e-304
-1.95219e-304
-9.58369e-305
-4.67863e-305
-2.2728e-305
-1.09945e-305
-5.30032e-306
-2.54874e-306
-1.22369e-306
-5.87289e-307
-2.82229e-307
-1.36242e-307
-6.66452e-308
-3.39003e-308
-1.93093e-308
-1.42632e-308
-1.50986e-308
-2.08956e-308
-3.25183e-308
-5.23672e-308
-8.45138e-308
-1.35178e-307
-2.13313e-307
-3.31167e-307
-5.04497e-307
-7.52253e-307
-1.09477e-306
-1.55019e-306
-2.12836e-306
-2.82298e-306
-3.60361e-306
-4.41152e-306
-5.16519e-306
-5.78006e-306
-6.2014e-306
-6.43656e-306
-9.72663e-295
-8.95027e-295
-8.56851e-295
-8.08142e-295
-7.31137e-295
-6.29313e-295
-5.15467e-295
-4.03226e-295
-3.02619e-295
-2.18904e-295
-1.53277e-295
-1.04289e-295
-6.9183e-296
-4.48802e-296
-2.85448e-296
-1.78403e-296
-1.09786e-296
-6.66373e-297
-3.99564e-297
-2.36997e-297
-1.39223e-297
-8.10873e-298
-4.6868e-298
-2.69055e-298
-1.53517e-298
-8.71148e-299
-4.91886e-299
-2.7647e-299
-1.54724e-299
-8.62302e-300
-4.78578e-300
-2.64468e-300
-1.45476e-300
-7.96171e-301
-4.33258e-301
-2.3425e-301
-1.25721e-301
-6.6907e-302
-3.5263e-302
-1.83722e-302
-9.42917e-303
-4.80833e-303
-2.43636e-303
-1.2268e-303
-6.14035e-304
-3.05594e-304
-1.51289e-304
-7.45425e-305
-3.6575e-305
-1.78829e-305
-8.71934e-306
-4.2431e-306
-2.06272e-306
-1.00287e-306
-4.88458e-307
-2.39162e-307
-1.18796e-307
-6.15913e-308
-3.60418e-308
-2.75927e-308
-3.0304e-308
-4.3151e-308
-6.85141e-308
-1.11965e-307
-1.82969e-307
-2.95888e-307
-4.71347e-307
-7.37648e-307
-1.13123e-306
-1.69565e-306
-2.47723e-306
-3.51632e-306
-4.83322e-306
-6.4099e-306
-8.17229e-306
-9.98259e-306
-1.16543e-305
-1.29999e-305
-1.39071e-305
-1.44104e-305
-2.14828e-294
-1.97711e-294
-1.89957e-294
-1.79963e-294
-1.63477e-294
-1.41153e-294
-1.15856e-294
-9.07101e-295
-6.80574e-295
-4.9155e-295
-3.43228e-295
-2.32584e-295
-1.53471e-295
-9.89029e-296
-6.24111e-296
-3.86527e-296
-2.35419e-296
-1.41263e-296
-8.36425e-297
-4.89391e-297
-2.83311e-297
-1.6246e-297
-9.23738e-298
-5.21276e-298
-2.92188e-298
-1.62798e-298
-9.02221e-299
-4.97611e-299
-2.73261e-299
-1.49462e-299
-8.1441e-300
-4.4214e-300
-2.39143e-300
-1.2884e-300
-6.91162e-301
-3.68993e-301
-1.95918e-301
-1.03366e-301
-5.4134e-302
-2.80981e-302
-1.44114e-302
-7.35536e-303
-3.7355e-303
-1.88778e-303
-9.49446e-304
-4.75338e-304
-2.36968e-304
-1.17681e-304
-5.82473e-305
-2.87508e-305
-1.41619e-305
-6.96653e-306
-3.42545e-306
-1.68537e-306
-8.31134e-307
-4.12324e-307
-2.07855e-307
-1.09832e-307
-6.62459e-308
-5.30898e-308
-6.10774e-308
-8.96615e-308
-1.45098e-307
-2.40458e-307
-3.97357e-307
-6.48723e-307
-1.04196e-306
-1.642e-306
-2.53252e-306
-3.81309e-306
-5.58888e-306
-7.95e-306
-1.09385e-305
-1.45069e-305
-1.84786e-305
-2.2534e-305
-2.62487e-305
-2.92067e-305
-3.11747e-305
-3.22613e-305
-4.75699e-294
-4.37823e-294
-4.21831e-294
-4.0104e-294
-3.65455e-294
-3.16318e-294
-2.60034e-294
-2.03725e-294
-1.52798e-294
-1.10211e-294
-7.67722e-295
-5.18443e-295
-3.40545e-295
-2.18227e-295
-1.36785e-295
-8.40536e-296
-5.07403e-296
-3.0145e-296
-1.76541e-296
-1.02065e-296
-5.83283e-297
-3.29886e-297
-1.84841e-297
-1.0271e-297
-5.66488e-298
-3.10378e-298
-1.69058e-298
-9.16046e-299
-4.94074e-299
-2.65388e-299
-1.42026e-299
-7.57498e-300
-4.02724e-300
-2.13436e-300
-1.12751e-300
-5.93555e-301
-3.11247e-301
-1.62481e-301
-8.43726e-302
-4.35268e-302
-2.22536e-302
-1.13399e-302
-5.75869e-303
-2.91422e-303
-1.46967e-303
-7.38706e-304
-3.70145e-304
-1.84952e-304
-9.21949e-305
-4.58703e-305
-2.27924e-305
-1.13181e-305
-5.62125e-306
-2.79526e-306
-1.39406e-306
-7.00006e-307
-3.57959e-307
-1.93093e-307
-1.20771e-307
-1.02304e-307
-1.23917e-307
-1.87792e-307
-3.09422e-307
-5.19084e-307
-8.66202e-307
-1.42578e-306
-2.30609e-306
-3.65554e-306
-5.66527e-306
-8.56213e-306
-1.25843e-305
-1.79332e-305
-2.46968e-305
-3.27558e-305
-4.16962e-305
-5.07825e-305
-5.90527e-305
-6.55824e-305
-6.98812e-305
-7.22466e-305
-1.0559e-293
-9.71838e-294
-9.38347e-294
-8.94496e-294
-8.17098e-294
-7.08541e-294
-5.83144e-294
-4.57061e-294
-3.42683e-294
-2.46883e-294
-1.71629e-294
-1.15564e-294
-7.56207e-295
-4.82297e-295
-3.0059e-295
-1.83492e-295
-1.09933e-295
-6.47595e-296
-3.75707e-296
-2.14984e-296
-1.21494e-296
-6.78923e-297
-3.75567e-297
-2.05872e-297
-1.11934e-297
-6.04161e-298
-3.23986e-298
-1.72745e-298
-9.16406e-299
-4.84002e-299
-2.54638e-299
-1.33513e-299
-6.97932e-300
-3.63844e-300
-1.89188e-300
-9.81204e-301
-5.07519e-301
-2.61724e-301
-1.34495e-301
-6.88079e-302
-3.49781e-302
-1.77497e-302
-8.98997e-303
-4.54421e-303
-2.29234e-303
-1.15408e-303
-5.79947e-304
-2.90958e-304
-1.45779e-304
-7.29715e-305
-3.65108e-305
-1.82707e-305
-9.15097e-306
-4.59189e-306
-2.31261e-306
-1.17404e-306
-6.0883e-307
-3.36026e-307
-2.1947e-307
-1.98187e-307
-2.53673e-307
-3.96537e-307
-6.64308e-307
-1.12649e-306
-1.89547e-306
-3.14171e-306
-5.11149e-306
-8.14259e-306
-1.26701e-305
-1.92092e-305
-2.82986e-305
-4.03882e-305
-5.5665e-305
-7.38386e-305
-9.3949e-305
-1.14314e-304
-1.3276e-304
-1.47228e-304
-1.56676e-304
-1.61862e-304
-2.34874e-293
-2.16174e-293
-2.09059e-293
-1.99691e-293
-1.82743e-293
-1.58681e-293
-1.30708e-293
-1.02474e-293
-7.6803e-294
-5.52763e-294
-3.8362e-294
-2.57682e-294
-1.68083e-294
-1.06779e-294
-6.62354e-295
-4.02097e-295
-2.39382e-295
-1.40012e-295
-8.05869e-296
-4.57124e-296
-2.55892e-296
-1.41537e-296
-7.74395e-297
-4.19554e-297
-2.25302e-297
-1.20029e-297
-6.34922e-298
-3.33739e-298
-1.74451e-298
-9.07446e-299
-4.70035e-299
-2.42582e-299
-1.24806e-299
-6.40408e-300
-3.27851e-300
-1.67495e-300
-8.54066e-301
-4.34643e-301
-2.20714e-301
-1.11772e-301
-5.6366e-302
-2.84141e-302
-1.43168e-302
-7.20967e-303
-3.62849e-303
-1.82506e-303
-9.17486e-304
-4.61055e-304
-2.3165e-304
-1.16405e-304
-5.85247e-305
-2.94548e-305
-1.4849e-305
-7.50556e-306
-3.81091e-306
-1.95354e-306
-1.02716e-306
-5.8168e-307
-3.99803e-307
-3.87711e-307
-5.24635e-307
-8.44277e-307
-1.43552e-306
-2.45704e-306
-4.16348e-306
-6.94104e-306
-1.13482e-305
-1.81517e-305
-2.83386e-305
-4.30765e-305
-6.35814e-305
-9.08603e-305
-1.25314e-304
-1.66252e-304
-2.11467e-304
-2.5713e-304
-2.98338e-304
-3.30498e-304
-3.51368e-304
-3.62805e-304
-5.23393e-293
-4.81712e-293
-4.66404e-293
-4.46165e-293
-4.08839e-293
-3.5536e-293
-2.92887e-293
-2.29654e-293
-1.72065e-293
-1.23732e-293
-8.57495e-294
-5.74844e-294
-3.73989e-294
-2.36818e-294
-1.46328e-294
-8.84279e-295
-5.23692e-295
-3.04495e-295
-1.74106e-295
-9.80448e-296
-5.445e-296
-2.98588e-296
-1.61862e-296
-8.68302e-297
-4.61402e-297
-2.43091e-297
-1.27091e-297
-6.59886e-298
-3.40542e-298
-1.74799e-298
-8.9305e-299
-4.54433e-299
-2.30456e-299
-1.1654e-299
-5.87967e-300
-2.96076e-300
-1.48858e-300
-7.47405e-301
-3.7478e-301
-1.87642e-301
-9.37133e-302
-4.68349e-302
-2.34233e-302
-1.17229e-302
-5.87133e-303
-2.94277e-303
-1.4761e-303
-7.41076e-304
-3.72446e-304
-1.87421e-304
-9.4464e-305
-4.77073e-305
-2.41558e-305
-1.22739e-305
-6.27145e-306
-3.24174e-306
-1.72816e-306
-1.00762e-306
-7.34655e-307
-7.68744e-307
-1.09731e-306
-1.81237e-306
-3.12124e-306
-5.38446e-306
-9.17765e-306
-1.53737e-305
-2.52362e-305
-4.05009e-305
-6.34026e-305
-9.65811e-305
-1.42779e-304
-2.04253e-304
-2.81869e-304
-3.74013e-304
-4.75637e-304
-5.78064e-304
-6.70241e-304
-7.41914e-304
-7.88214e-304
-8.13559e-304
-1.16803e-292
-1.07498e-292
-1.0417e-292
-9.9755e-293
-9.14961e-293
-7.95835e-293
-6.56186e-293
-5.14549e-293
-3.85397e-293
-2.7694e-293
-1.91706e-293
-1.28307e-293
-8.32992e-294
-5.26084e-294
-3.24038e-294
-1.95093e-294
-1.15047e-294
-6.65694e-295
-3.7858e-295
-2.11918e-295
-1.16922e-295
-6.3662e-296
-3.42468e-296
-1.82211e-296
-9.59791e-297
-5.00987e-297
-2.59361e-297
-1.33282e-297
-6.80405e-298
-3.45319e-298
-1.7436e-298
-8.76485e-299
-4.3894e-299
-2.1913e-299
-1.09117e-299
-5.42262e-300
-2.69069e-300
-1.33361e-300
-6.60431e-301
-3.26796e-301
-1.6149e-301
-7.99118e-302
-3.96051e-302
-1.96619e-302
-9.77871e-303
-4.87254e-303
-2.4327e-303
-1.2171e-303
-6.10294e-304
-3.06766e-304
-1.54613e-304
-7.81644e-305
-3.96568e-305
-2.02109e-305
-1.03714e-305
-5.39796e-306
-2.91813e-306
-1.75903e-306
-1.37048e-306
-1.54902e-306
-2.32151e-306
-3.92082e-306
-6.82494e-306
-1.18502e-305
-2.02952e-305
-3.41298e-305
-5.62073e-305
-9.04498e-305
-1.41907e-304
-2.16539e-304
-3.20526e-304
-4.58924e-304
-6.33627e-304
-8.40898e-304
-1.06926e-303
-1.29908e-303
-1.50549e-303
-1.66556e-303
-1.76862e-303
-1.825e-303
-2.60961e-292
-2.40168e-292
-2.32866e-292
-2.23161e-292
-2.0482e-292
-1.78238e-292
-1.47e-292
-1.1527e-292
-8.63128e-293
-6.1986e-293
-4.28683e-293
-2.86539e-293
-1.85711e-293
-1.1704e-293
-7.19069e-294
-4.31637e-294
-2.5366e-294
-1.46202e-294
-8.2781e-295
-4.61138e-295
-2.53071e-295
-1.36996e-295
-7.32356e-296
-3.87038e-296
-2.0241e-296
-1.04849e-296
-5.38428e-297
-2.74339e-297
-1.388e-297
-6.97851e-298
-3.48919e-298
-1.73614e-298
-8.60278e-299
-4.2479e-299
-2.09154e-299
-1.0275e-299
-5.03925e-300
-2.46855e-300
-1.20837e-300
-5.91227e-301
-2.89082e-301
-1.41584e-301
-6.94837e-302
-3.41784e-302
-1.68548e-302
-8.33466e-303
-4.13359e-303
-2.05644e-303
-1.02644e-303
-5.14131e-304
-2.58491e-304
-1.30494e-304
-6.61797e-305
-3.37512e-305
-1.73575e-305
-9.08249e-306
-4.98075e-306
-3.11734e-306
-2.60917e-306
-3.17598e-306
-4.96529e-306
-8.54168e-306
-1.49981e-305
-2.61778e-305
-4.50067e-305
-7.59235e-305
-1.25363e-304
-2.02174e-304
-3.17749e-304
-4.85527e-304
-7.19421e-304
-1.03078e-303
-1.42375e-303
-1.88978e-303
-2.40285e-303
-2.91866e-303
-3.38125e-303
-3.73931e-303
-3.96932e-303
-4.09509e-303
-5.8355e-292
-5.37046e-292
-5.20916e-292
-4.99453e-292
-4.58603e-292
-3.99211e-292
-3.29294e-292
-2.58208e-292
-1.93294e-292
-1.38748e-292
-9.58828e-293
-6.40231e-293
-4.14386e-293
-2.60719e-293
-1.59856e-293
-9.5729e-294
-5.61024e-294
-3.22346e-294
-1.81876e-294
-1.00921e-294
-5.51481e-295
-2.97142e-295
-1.58045e-295
-8.30711e-296
-4.31918e-296
-2.22353e-296
-1.13438e-296
-5.73997e-297
-2.883e-297
-1.43845e-297
-7.13475e-298
-3.52051e-298
-1.72932e-298
-8.46211e-299
-4.12763e-299
-2.00825e-299
-9.75206e-300
-4.7292e-300
-2.2915e-300
-1.10987e-300
-5.37368e-301
-2.60612e-301
-1.26661e-301
-6.17169e-302
-3.01604e-302
-1.47874e-302
-7.27603e-303
-3.59392e-303
-1.7825e-303
-8.87961e-304
-4.44414e-304
-2.23543e-304
-1.1307e-304
-5.7576e-305
-2.96131e-305
-1.55555e-305
-8.65651e-306
-5.64607e-306
-5.08652e-306
-6.6236e-306
-1.07245e-305
-1.87221e-305
-3.31004e-305
-5.80143e-305
-1.00048e-304
-1.69195e-304
-2.7995e-304
-4.52251e-304
-7.11773e-304
-1.08879e-303
-1.6146e-303
-2.31467e-303
-3.1982e-303
-4.24566e-303
-5.39823e-303
-6.55609e-303
-7.59348e-303
-8.39538e-303
-8.90973e-303
-9.19095e-303
-1.30576e-291
-1.20169e-291
-1.16587e-291
-1.11818e-291
-1.02701e-291
-8.94178e-292
-7.37633e-292
-5.78363e-292
-4.32869e-292
-3.10592e-292
-2.14509e-292
-1.43115e-292
-9.25321e-293
-5.81417e-293
-3.55921e-293
-2.12742e-293
-1.24407e-293
-7.13038e-294
-4.01196e-294
-2.21931e-294
-1.20861e-294
-6.48787e-295
-3.43691e-295
-1.79866e-295
-9.3085e-296
-4.76837e-296
-2.41994e-296
-1.21771e-296
-6.08056e-297
-3.01529e-297
-1.48601e-297
-7.28337e-298
-3.5527e-298
-1.72582e-298
-8.35457e-299
-4.03301e-299
-1.94259e-299
-9.34216e-300
-4.48824e-300
-2.15518e-300
-1.03459e-300
-4.97385e-301
-2.39602e-301
-1.15715e-301
-5.60538e-302
-2.72475e-302
-1.32965e-302
-6.51632e-303
-3.20837e-303
-1.58758e-303
-7.89795e-304
-3.95184e-304
-1.99002e-304
-1.00987e-304
-5.18519e-305
-2.73063e-305
-1.54231e-305
-1.05058e-305
-1.01653e-305
-1.40302e-305
-2.336e-305
-4.12474e-305
-7.33154e-305
-1.28916e-304
-2.22856e-304
-3.77615e-304
-6.25817e-304
-1.01235e-303
-1.59501e-303
-2.44194e-303
-3.62354e-303
-5.19696e-303
-7.18264e-303
-9.53625e-303
-1.21251e-302
-1.47246e-302
-1.7052e-302
-1.88496e-302
-2.00015e-302
-2.06312e-302
-2.92315e-291
-2.69015e-291
-2.61033e-291
-2.504e-291
-2.3002e-291
-2.0029e-291
-1.6523e-291
-1.29544e-291
-9.69384e-292
-6.9533e-292
-4.80001e-292
-3.2004e-292
-2.06753e-292
-1.29778e-292
-7.93468e-293
-4.7358e-293
-2.76472e-293
-1.58153e-293
-8.87915e-294
-4.89979e-294
-2.66122e-294
-1.42437e-294
-7.52152e-295
-3.9228e-295
-2.02269e-295
-1.03209e-295
-5.2161e-296
-2.61325e-296
-1.29888e-296
-6.40984e-297
-3.14291e-297
-1.53227e-297
-7.43285e-298
-3.58991e-298
-1.72746e-298
-8.28713e-299
-3.96598e-299
-1.89459e-299
-9.03976e-300
-4.31033e-300
-2.05461e-300
-9.80532e-301
-4.68777e-301
-2.24644e-301
-1.07966e-301
-5.20685e-302
-2.52103e-302
-1.22603e-302
-5.99169e-303
-2.94383e-303
-1.45475e-303
-7.23421e-304
-3.62272e-304
-1.82978e-304
-9.36634e-305
-4.93956e-305
-2.83119e-305
-2.01406e-305
-2.08038e-305
-3.01201e-305
-5.12398e-305
-9.12594e-305
-1.62872e-304
-2.87107e-304
-4.97246e-304
-8.43829e-304
-1.40022e-303
-2.26741e-303
-3.57544e-303
-5.47757e-303
-8.13207e-303
-1.16672e-302
-1.61286e-302
-2.1416e-302
-2.72305e-302
-3.30669e-302
-3.82902e-302
-4.23223e-302
-4.49046e-302
-4.63166e-302
-6.54604e-291
-6.02427e-291
-5.84588e-291
-5.60823e-291
-5.15217e-291
-4.48646e-291
-3.70109e-291
-2.90154e-291
-2.1709e-291
-1.55677e-291
-1.07428e-291
-7.15921e-292
-4.62208e-292
-2.89898e-292
-1.77076e-292
-1.05568e-292
-6.15492e-293
-3.51558e-293
-1.97042e-293
-1.08528e-293
-5.8822e-294
-3.14116e-294
-1.6546e-294
-8.60633e-295
-4.42489e-295
-2.25091e-295
-1.13389e-295
-5.66124e-296
-2.80367e-296
-1.37833e-296
-6.73149e-297
-3.26821e-297
-1.57852e-297
-7.58966e-298