/*--------------------------------*- C++ -*----------------------------------*\
  =========                 |
  \\      /  F ield         | OpenFOAM: The Open Source CFD Toolbox
   \\    /   O peration     | Website:  https://openfoam.org
    \\  /    A nd           | Version:  11
     \\/     M anipulation  |
\*---------------------------------------------------------------------------*/
FoamFile
{
    format      ascii;
    class       volScalarField;
    location    "100";
    object      C;
}
// * * * * * * * * * * * * * * * * * * * * * * * * * * * * * * * * * * * * * //

dimensions      [0 0 0 1 0 0 0];

internalField   nonuniform List<scalar> 
440320
(
5.8252e-256
9.64617e-256
8.64245e-256
7.92628e-256
7.49214e-256
6.95386e-256
6.17797e-256
5.2233e-256
4.21402e-256
3.26104e-256
2.43362e-256
1.75981e-256
1.23817e-256
8.50581e-257
5.7225e-257
3.78045e-257
2.45823e-257
1.57673e-257
9.99547e-258
6.27389e-258
3.90526e-258
2.41399e-258
1.48346e-258
9.07004e-259
5.51986e-259
3.34396e-259
2.01596e-259
1.20868e-259
7.2001e-260
4.25641e-260
2.49357e-260
1.44544e-260
8.27673e-261
4.67335e-261
2.59712e-261
1.41766e-261
7.58416e-262
3.96636e-262
2.02158e-262
1.00016e-262
4.77473e-263
2.16836e-263
9.39543e-264
3.91639e-264
1.58768e-264
6.34471e-265
2.54005e-265
1.03649e-265
4.37513e-266
1.92465e-266
8.80443e-267
4.14892e-267
1.99155e-267
9.67564e-268
4.79592e-268
2.53688e-268
1.61139e-268
1.42606e-268
1.73995e-268
2.50762e-268
3.8099e-268
5.82854e-268
8.84315e-268
1.32376e-267
1.95059e-267
2.82482e-267
4.01425e-267
5.58783e-267
7.60326e-267
1.00873e-266
1.30093e-266
1.62513e-266
1.95893e-266
2.27116e-266
2.53182e-266
2.73437e-266
2.92962e-266
3.25595e-266
3.92689e-266
5.06742e-266
7.59949e-255
7.77453e-255
6.27463e-255
5.33467e-255
4.74685e-255
4.2365e-255
3.69312e-255
3.11099e-255
2.52631e-255
1.9801e-255
1.50181e-255
1.10543e-255
7.91929e-256
5.53668e-256
3.78703e-256
2.53993e-256
1.67391e-256
1.08612e-256
6.95087e-257
4.39486e-257
2.74955e-257
1.70444e-257
1.04813e-257
6.39982e-258
3.88263e-258
2.34122e-258
1.40321e-258
8.35673e-259
4.94207e-259
2.89963e-259
1.68592e-259
9.70064e-260
5.51529e-260
3.09328e-260
1.70834e-260
9.27241e-261
4.93572e-261
2.57041e-261
1.30583e-261
6.44776e-262
3.0808e-262
1.4141e-262
6.25797e-263
2.69004e-263
1.13355e-263
4.73141e-264
1.97764e-264
8.36249e-265
3.60457e-265
1.58917e-265
7.15773e-266
3.27896e-266
1.52016e-266
7.12615e-267
3.42477e-267
1.78399e-267
1.15318e-267
1.06804e-267
1.35011e-267
1.97301e-267
3.00593e-267
4.59436e-267
6.9589e-267
1.04021e-266
1.53158e-266
2.21838e-266
3.15695e-266
4.40834e-266
6.03191e-266
8.07507e-266
1.05598e-265
1.34672e-265
1.67253e-265
2.02081e-265
2.37628e-265
2.72854e-265
3.08743e-265
3.50711e-265
4.09961e-265
4.84731e-265
3.04518e-254
2.81118e-254
2.15216e-254
1.75591e-254
1.5247e-254
1.34524e-254
1.16945e-254
9.88555e-255
8.09373e-255
6.41824e-255
4.9366e-255
3.68985e-255
2.68544e-255
1.90668e-255
1.32305e-255
8.98781e-256
5.98699e-256
3.9166e-256
2.51999e-256
1.597e-256
9.98225e-257
6.16245e-257
3.76209e-257
2.27383e-257
1.362e-257
8.09168e-258
4.7706e-258
2.79178e-258
1.62148e-258
9.34231e-259
5.335e-259
3.01599e-259
1.68531e-259
9.29186e-260
5.04424e-260
2.68993e-260
1.40534e-260
7.1704e-261
3.55886e-261
1.70937e-261
7.90607e-262
3.47872e-262
1.45839e-262
5.85312e-263
2.26409e-263
8.52525e-264
3.17264e-264
1.19305e-264
4.66e-265
1.93756e-265
8.65351e-266
4.10754e-266
2.03189e-266
1.03679e-266
5.58306e-267
3.4738e-267
2.89601e-267
3.3685e-267
4.79074e-267
7.32472e-267
1.13564e-266
1.75004e-266
2.66281e-266
3.99023e-266
5.88025e-266
8.51186e-266
1.20886e-265
1.68231e-265
2.29106e-265
3.04892e-265
3.95906e-265
5.00909e-265
6.16832e-265
7.39115e-265
8.633e-265
9.88857e-265
1.12632e-264
1.30671e-264
1.57573e-264
1.87966e-264
9.12298e-254
8.17781e-254
6.22195e-254
5.00523e-254
4.2802e-254
3.72831e-254
3.20977e-254
2.69591e-254
2.20065e-254
1.74568e-254
1.34721e-254
1.01292e-254
7.43006e-255
5.32397e-255
3.73087e-255
2.55967e-255
1.72105e-255
1.13519e-255
7.3523e-256
4.68032e-256
2.93123e-256
1.80792e-256
1.09927e-256
6.59595e-257
3.90957e-257
2.29127e-257
1.32887e-257
7.63196e-258
4.34224e-258
2.44763e-258
1.36644e-258
7.54934e-259
4.12243e-259
2.22106e-259
1.178e-259
6.1332e-260
3.12388e-260
1.54981e-260
7.44534e-261
3.43529e-261
1.51236e-261
6.17993e-262
2.32018e-262
7.85562e-263
2.29324e-263
5.01721e-264
2.28669e-265
-5.82233e-265
-4.54018e-265
-2.38782e-265
-1.02014e-265
-3.56992e-266
-8.71778e-267
5.54683e-268
3.2388e-267
4.22633e-267
5.51071e-267
8.0108e-267
1.24345e-266
1.96749e-266
3.10189e-266
4.82954e-266
7.40062e-266
1.11436e-265
1.64717e-265
2.38788e-265
3.39204e-265
4.71706e-265
6.41513e-265
8.52325e-265
1.10511e-264
1.39696e-264
1.72061e-264
2.06568e-264
2.42367e-264
2.79971e-264
3.23287e-264
3.81345e-264
4.62418e-264
5.41359e-264
2.3755e-253
2.11172e-253
1.6334e-253
1.32572e-253
1.13178e-253
9.77745e-254
8.32538e-254
6.91402e-254
5.58725e-254
4.39661e-254
3.37402e-254
2.52887e-254
1.8535e-254
1.32973e-254
9.34481e-255
6.43696e-255
4.34829e-255
2.88192e-255
1.87484e-255
1.19773e-255
7.51726e-256
4.63756e-256
2.81375e-256
1.68e-256
9.87756e-257
5.72283e-257
3.26972e-257
1.84353e-257
1.02635e-257
5.64456e-258
3.06703e-258
1.64604e-258
8.71847e-259
4.55061e-259
2.33522e-259
1.17433e-259
5.76057e-260
2.73869e-260
1.24948e-260
5.38571e-261
2.16444e-261
7.46196e-262
1.94646e-262
1.46705e-263
-2.65744e-263
-2.54846e-263
-1.6386e-263
-8.91297e-264
-4.3763e-264
-1.99218e-264
-8.51052e-265
-3.42465e-265
-1.29123e-265
-4.4329e-266
-1.18935e-266
1.01457e-267
8.07363e-267
1.52045e-266
2.56478e-266
4.21926e-266
6.82235e-266
1.08317e-265
1.68677e-265
2.57475e-265
3.85074e-265
5.64029e-265
8.0872e-265
1.13444e-264
1.55581e-264
2.08429e-264
2.72508e-264
3.47371e-264
4.31384e-264
5.21932e-264
6.16596e-264
7.16103e-264
8.29089e-264
9.74226e-264
1.16278e-263
1.33242e-263
5.76362e-253
5.11168e-253
4.04652e-253
3.34858e-253
2.87914e-253
2.47906e-253
2.09099e-253
1.71524e-253
1.36809e-253
1.06316e-253
8.06803e-254
5.99033e-254
4.35772e-254
3.10895e-254
2.17663e-254
1.49602e-254
1.00962e-254
6.69106e-255
4.35465e-255
2.78312e-255
1.74672e-255
1.07653e-255
6.51548e-256
3.87269e-256
2.26084e-256
1.29655e-256
7.30573e-257
4.04578e-257
2.2025e-257
1.17895e-257
6.20518e-258
3.21062e-258
1.63178e-258
8.13374e-259
3.96522e-259
1.88189e-259
8.62972e-260
3.77475e-260
1.53717e-260
5.53239e-261
1.60191e-261
9.02221e-263
-3.16512e-262
-3.17084e-262
-2.18728e-262
-1.28043e-262
-6.77418e-263
-3.33115e-263
-1.54556e-263
-6.82533e-264
-2.88334e-264
-1.16789e-264
-4.53204e-265
-1.67128e-265
-5.62141e-266
-1.2886e-266
7.30373e-267
2.31299e-266
4.40061e-266
7.70223e-266
1.30167e-265
2.14094e-265
3.4337e-265
5.37506e-265
8.21747e-265
1.2274e-264
1.79133e-264
2.55415e-264
3.55641e-264
4.83243e-264
6.4012e-264
8.25563e-264
1.0353e-263
1.26147e-263
1.4951e-263
1.73293e-263
1.98824e-263
2.2951e-263
2.67367e-263
3.00732e-263
1.34916e-252
1.1962e-252
9.68375e-253
8.17961e-253
7.10193e-253
6.11161e-253
5.11619e-253
4.14862e-253
3.26454e-253
2.50129e-253
1.87204e-253
1.37201e-253
9.86428e-254
6.96534e-254
4.83384e-254
3.29806e-254
2.21247e-254
1.45915e-254
9.4584e-255
6.02404e-255
3.76822e-255
2.31403e-255
1.39437e-255
8.24039e-256
4.77362e-256
2.7092e-256
1.50548e-256
8.1859e-257
4.35203e-257
2.26019e-257
1.1452e-257
5.65078e-258
2.7077e-258
1.25419e-258
5.57135e-259
2.33926e-259
9.01065e-260
2.95278e-260
6.03221e-261
-1.76234e-261
-3.16865e-261
-2.92903e-261
-2.11812e-261
-1.32778e-261
-7.54232e-262
-3.97616e-262
-1.97383e-262
-9.31469e-263
-4.2058e-263
-1.82505e-263
-7.63345e-264
-3.08265e-264
-1.20258e-264
-4.52566e-265
-1.62572e-265
-5.15512e-266
-4.4434e-267
2.65929e-266
6.45787e-266
1.25832e-265
2.28206e-265
3.95621e-265
6.61349e-265
1.07089e-264
1.68446e-264
2.57853e-264
3.84557e-264
5.59039e-264
7.92126e-264
1.09336e-263
1.46844e-263
1.91592e-263
2.42374e-263
2.96793e-263
3.51729e-263
4.04914e-263
4.57593e-263
5.16137e-263
5.8624e-263
6.49552e-263
3.09814e-252
2.74917e-252
2.26799e-252
1.94852e-252
1.70609e-252
1.46817e-252
1.22142e-252
9.8026e-253
7.61534e-253
5.75281e-253
4.24284e-253
3.06458e-253
2.17262e-253
1.51404e-253
1.03803e-253
7.00465e-254
4.65273e-254
3.04153e-254
1.95602e-254
1.23684e-254
7.6845e-255
4.68746e-255
2.80468e-255
1.64439e-255
9.43616e-256
5.29258e-256
2.89685e-256
1.54428e-256
7.99811e-257
4.01106e-257
1.93856e-257
8.96354e-258
3.91705e-258
1.58089e-258
5.59291e-259
1.46719e-259
5.19683e-262
-3.8153e-260
-3.87486e-260
-2.91553e-260
-1.87145e-260
-1.16843e-260
-6.91083e-261
-3.85523e-261
-2.03527e-261
-1.0221e-261
-4.90729e-262
-2.26216e-262
-1.00471e-262
-4.31081e-263
-1.79029e-263
-7.2066e-264
-2.81517e-264
-1.0695e-264
-3.96999e-265
-1.43392e-265
-4.25711e-266
1.50205e-266
8.09243e-266
1.90578e-265
3.82439e-265
7.08715e-265
1.24351e-264
2.09037e-264
3.38946e-264
5.32294e-264
8.11636e-264
1.20318e-263
1.73471e-263
2.43139e-263
3.30889e-263
4.36373e-263
5.56281e-263
6.83727e-263
8.09156e-263
9.24082e-263
1.02794e-262
1.13377e-262
1.2589e-262
1.37843e-262
7.02537e-252
6.24465e-252
5.22914e-252
4.54763e-252
4.00378e-252
3.44297e-252
2.84837e-252
2.26504e-252
1.73905e-252
1.29612e-252
9.42161e-253
6.70404e-253
4.68203e-253
3.21516e-253
2.17336e-253
1.44703e-253
9.49114e-254
6.13174e-254
3.90019e-254
2.44083e-254
1.50163e-254
9.07196e-255
5.37522e-255
3.11885e-255
1.76892e-255
9.78529e-256
5.2647e-256
2.74479e-256
1.3796e-256
6.63438e-257
3.01497e-257
1.26588e-257
4.67379e-258
1.30483e-258
5.23261e-260
-3.03427e-259
-3.23915e-259
-2.47954e-259
-1.65237e-259
-1.01568e-259
-5.78736e-260
-3.26998e-260
-1.79495e-260
-9.48861e-261
-4.81978e-261
-2.35431e-261
-1.10802e-261
-5.03539e-262
-2.21426e-262
-9.43861e-263
-3.90564e-263
-1.57073e-263
-6.14919e-264
-2.35319e-264
-8.91813e-265
-3.4498e-265
-1.36835e-265
-3.1468e-266
8.06723e-266
2.7363e-265
6.27819e-265
1.25424e-264
2.31386e-264
4.03665e-264
6.74084e-264
1.08494e-263
1.6898e-263
2.55227e-263
3.74132e-263
5.32088e-263
7.33199e-263
9.76693e-263
1.25397e-262
1.54668e-262
1.8285e-262
2.07422e-262
2.27721e-262
2.4659e-262
2.68823e-262
2.91654e-262
1.57541e-251
1.40364e-251
1.18893e-251
1.04218e-251
9.19952e-252
7.89699e-252
6.49838e-252
5.12478e-252
3.89279e-252
2.86513e-252
2.054e-252
1.44018e-252
9.90655e-253
6.69949e-253
4.46043e-253
2.92601e-253
1.89179e-253
1.20542e-253
7.56637e-254
4.67537e-254
2.84117e-254
1.69582e-254
9.92603e-255
5.68643e-255
3.18057e-255
1.73143e-255
9.13509e-256
4.64359e-256
2.25391e-256
1.02922e-256
4.29851e-257
1.53697e-257
3.70531e-258
-5.44938e-259
-1.63021e-258
-1.54268e-258
-1.14132e-258
-7.49336e-259
-4.56644e-259
-2.63696e-259
-1.43696e-259
-7.76728e-260
-4.10591e-260
-2.1069e-260
-1.04636e-260
-5.0269e-261
-2.33789e-261
-1.05388e-261
-4.61116e-262
-1.96084e-262
-8.11306e-263
-3.26977e-263
-1.28593e-263
-4.96074e-264
-1.90954e-264
-7.68078e-265
-3.44069e-265
-1.49348e-265
4.11865e-266
3.78011e-265
1.02517e-264
2.21321e-264
4.28381e-264
7.73621e-264
1.32765e-263
2.18639e-263
3.47386e-263
5.34043e-263
7.95247e-263
1.14676e-262
1.59903e-262
2.1506e-262
2.78047e-262
3.4427e-262
4.07032e-262
4.59711e-262
5.00044e-262
5.34313e-262
5.74552e-262
6.18961e-262
3.49167e-251
3.11953e-251
2.66559e-251
2.34769e-251
2.07328e-251
1.77505e-251
1.45309e-251
1.13729e-251
8.55521e-252
6.22433e-252
4.40442e-252
3.04486e-252
2.06347e-252
1.37418e-252
9.00779e-253
5.81783e-253
3.70405e-253
2.32479e-253
1.4379e-253
8.75798e-254
5.24751e-254
3.08859e-254
1.7825e-254
1.0063e-254
5.54011e-255
2.96209e-255
1.52908e-255
7.55455e-256
3.52108e-256
1.5071e-256
5.56964e-257
1.4379e-257
-1.3006e-258
-5.66218e-258
-5.62515e-258
-4.2886e-258
-2.88326e-258
-1.79144e-258
-1.05167e-258
-5.9021e-259
-3.14911e-259
-1.66338e-259
-8.61034e-260
-4.34281e-260
-2.12847e-260
-1.01288e-260
-4.68122e-261
-2.10292e-261
-9.1916e-262
-3.91308e-262
-1.62421e-262
-6.58004e-263
-2.60677e-263
-1.01553e-263
-3.96275e-264
-1.63113e-264
-7.72141e-265
-4.0459e-265
-7.71398e-266
5.09628e-265
1.68366e-264
3.91421e-264
7.91218e-264
1.47395e-263
2.59308e-263
4.36147e-263
7.0599e-263
1.10356e-262
1.66798e-262
2.4371e-262
3.43689e-262
4.66537e-262
6.07369e-262
7.55266e-262
8.94128e-262
1.00781e-261
1.09017e-261
1.15486e-261
1.22997e-261
1.31787e-261
7.64249e-251
6.84775e-251
5.89092e-251
5.20226e-251
4.59006e-251
3.91749e-251
3.1909e-251
2.48019e-251
1.84932e-251
1.3313e-251
9.30695e-252
6.34854e-252
4.24104e-252
2.78214e-252
1.79562e-252
1.14158e-252
7.15388e-253
4.41969e-253
2.69117e-253
1.61397e-253
9.5234e-254
5.52031e-254
3.13701e-254
1.74284e-254
9.43139e-255
4.94548e-255
2.49356e-255
1.19423e-255
5.31493e-256
2.09826e-256
6.41802e-257
5.11268e-258
-1.40996e-257
-1.67475e-257
-1.3726e-257
-9.6668e-258
-6.22526e-258
-3.76454e-258
-2.16829e-258
-1.19908e-258
-6.33236e-259
-3.30376e-259
-1.6903e-259
-8.44368e-260
-4.1091e-260
-1.9466e-260
-8.97777e-261
-4.03356e-261
-1.76687e-261
-7.55297e-262
-3.15385e-262
-1.2878e-262
-5.1522e-263
-2.03091e-263
-8.03136e-264
-3.35447e-264
-1.62416e-264
-9.15245e-265
-3.40835e-265
6.84808e-265
2.80657e-264
6.96378e-264
1.46104e-263
2.79658e-263
5.03056e-263
8.62644e-263
1.42073e-262
2.25575e-262
3.45772e-262
5.11544e-262
7.29187e-262
9.9864e-262
1.30899e-261
1.63527e-261
1.94035e-261
2.18675e-261
2.35924e-261
2.48675e-261
2.63159e-261
2.80781e-261
1.65133e-250
1.48382e-250
1.28325e-250
1.13486e-250
9.99727e-251
8.50439e-251
6.89453e-251
5.32539e-251
3.93933e-251
2.80867e-251
1.94167e-251
1.30799e-251
8.61951e-252
5.57297e-252
3.54272e-252
2.21743e-252
1.36767e-252
8.31516e-253
4.98248e-253
2.94064e-253
1.70763e-253
9.74102e-254
5.44635e-254
2.97548e-254
1.58156e-254
8.12777e-255
3.9996e-255
1.8541e-255
7.84493e-256
2.80515e-256
6.22176e-257
-1.9322e-257
-4.0318e-257
-3.78283e-257
-2.85999e-257
-1.93498e-257
-1.21723e-257
-7.25108e-258
-4.13349e-258
-2.26851e-258
-1.19284e-258
-6.18579e-259
-3.14633e-259
-1.56451e-259
-7.59225e-260
-3.59351e-260
-1.6591e-260
-7.47596e-261
-3.29031e-261
-1.41568e-261
-5.96031e-262
-2.45832e-262
-9.95263e-263
-3.97639e-263
-1.59439e-263
-6.73094e-264
-3.27807e-264
-1.89071e-264
-8.5782e-265
9.49729e-265
4.78323e-264
1.24977e-263
2.70252e-263
5.29363e-263
9.71132e-263
1.6948e-262
2.8362e-262
4.56924e-262
7.09676e-262
1.06225e-261
1.52957e-261
2.11241e-261
2.78716e-261
3.49832e-261
4.16291e-261
4.69669e-261
5.06387e-261
5.32409e-261
5.61092e-261
5.96681e-261
3.52302e-250
3.17411e-250
2.75666e-250
2.43969e-250
2.14528e-250
1.81916e-250
1.46847e-250
1.1279e-250
8.28408e-251
5.8552e-251
4.00661e-251
2.66789e-251
1.73576e-251
1.10689e-251
6.93461e-252
4.27503e-252
2.59592e-252
1.55337e-252
9.15952e-253
5.31932e-253
3.0393e-253
1.70575e-253
9.38125e-254
5.03904e-254
2.63074e-254
1.32525e-254
6.36736e-255
2.85826e-255
1.14817e-255
3.658e-256
4.18968e-257
-6.84181e-257
-8.78584e-257
-7.46029e-257
-5.40348e-257
-3.57201e-257
-2.2161e-257
-1.30879e-257
-7.42003e-258
-4.05827e-258
-2.13243e-258
-1.10355e-258
-5.60187e-259
-2.78247e-259
-1.35063e-259
-6.40441e-260
-2.96709e-260
-1.34377e-260
-5.95385e-261
-2.58305e-261
-1.09839e-261
-4.58336e-262
-1.88056e-262
-7.62517e-263
-3.10225e-263
-1.32211e-263
-6.42608e-264
-3.69886e-264
-1.7976e-264
1.42539e-264
8.37201e-264
2.26665e-263
5.01551e-263
1.00136e-262
1.86877e-262
3.31329e-262
5.62641e-262
9.18723e-262
1.44446e-261
2.18568e-261
3.17684e-261
4.42174e-261
5.87026e-261
7.40195e-261
8.83551e-261
9.98623e-261
1.07725e-260
1.13148e-260
1.18927e-260
1.26134e-260
7.42635e-250
6.70707e-250
5.84486e-250
5.17484e-250
4.5423e-250
3.84066e-250
3.08844e-250
2.3604e-250
1.7227e-250
1.20815e-250
8.19092e-251
5.39638e-251
3.4695e-251
2.18405e-251
1.34951e-251
8.19932e-252
4.9043e-252
2.8896e-252
1.67725e-252
9.58679e-253
5.39062e-253
2.9771e-253
1.61096e-253
8.51083e-254
4.36701e-254
2.15881e-254
1.01456e-254
4.42253e-255
1.69271e-255
4.77521e-256
-4.70209e-258
-1.54136e-256
-1.67207e-256
-1.34789e-256
-9.52144e-257
-6.20608e-257
-3.81828e-257
-2.24418e-257
-1.26919e-257
-6.93621e-258
-3.65052e-258
-1.8903e-258
-9.60175e-259
-4.77578e-259
-2.32398e-259
-1.10618e-259
-5.15161e-260
-2.34872e-260
-1.04914e-260
-4.59561e-261
-1.9761e-261
-8.35162e-262
-3.47616e-262
-1.43164e-262
-5.91378e-263
-2.54466e-263
-1.23109e-263
-6.97783e-264
-3.41665e-264
2.40641e-264
1.50618e-263
4.15731e-263
9.34944e-263
1.89553e-262
3.59009e-262
6.45539e-262
1.11086e-261
1.83639e-261
2.9198e-261
4.46228e-261
6.54173e-261
9.17037e-261
1.22438e-260
1.55048e-260
1.85647e-260
2.10256e-260
2.2706e-260
2.38457e-260
2.50201e-260
2.64782e-260
1.54825e-249
1.4013e-249
1.22458e-249
1.08445e-249
9.5038e-250
8.01542e-250
6.42409e-250
4.8885e-250
3.54799e-250
2.47107e-250
1.66144e-250
1.08408e-250
6.89436e-251
4.28824e-251
2.6156e-251
1.56752e-251
9.24231e-252
5.36541e-252
3.06747e-252
1.72654e-252
9.55901e-253
5.19775e-253
2.76907e-253
1.44011e-253
7.2716e-254
3.53431e-254
1.62973e-254
6.93539e-255
2.5543e-255
6.48914e-256
-8.12788e-257
-2.8987e-256
-2.9147e-256
-2.28425e-256
-1.59015e-256
-1.02776e-256
-6.29317e-257
-3.69031e-257
-2.08606e-257
-1.14116e-257
-6.02462e-258
-3.1271e-258
-1.59234e-258
-7.9448e-259
-3.88191e-259
-1.85744e-259
-8.7066e-260
-4.00058e-260
-1.8034e-260
-7.98297e-261
-3.47383e-261
-1.48794e-261
-6.28591e-262
-2.63059e-262
-1.10376e-262
-4.7988e-263
-2.31133e-263
-1.2816e-263
-6.08268e-264
4.57216e-264
2.77856e-263
7.70892e-263
1.75164e-262
3.59436e-262
6.89358e-262
1.25505e-261
2.18566e-261
3.6537e-261
5.86868e-261
9.05029e-261
1.3371e-260
1.88646e-260
2.53158e-260
3.21837e-260
3.86457e-260
4.38585e-260
4.74253e-260
4.98189e-260
5.22102e-260
5.51525e-260
3.19606e-249
2.89809e-249
2.53848e-249
2.2484e-249
1.96777e-249
1.65602e-249
1.32347e-249
1.00335e-249
7.24696e-250
5.01664e-250
3.34812e-250
2.16574e-250
1.36377e-250
8.38985e-251
5.05651e-251
2.99186e-251
1.74045e-251
9.9635e-252
5.61501e-252
3.11463e-252
1.69923e-252
9.10461e-253
4.77996e-253
2.45013e-253
1.21948e-253
5.84221e-254
2.65399e-254
1.11066e-254
3.99761e-255
9.59451e-256
-1.78219e-256
-4.87598e-256
-4.75814e-256
-3.68021e-256
-2.54289e-256
-1.63641e-256
-9.99805e-257
-5.85993e-257
-3.31554e-257
-1.81767e-257
-9.63556e-258
-5.01931e-258
-2.56544e-258
-1.28555e-258
-6.31402e-259
-3.04006e-259
-1.43554e-259
-6.65282e-260
-3.02845e-260
-1.35547e-260
-5.97165e-261
-2.59309e-261
-1.11205e-261
-4.72922e-262
-2.01593e-262
-8.86299e-263
-4.25657e-263
-2.30294e-263
-1.02758e-263
9.43068e-264
5.23251e-263
1.44371e-262
3.29882e-262
6.83194e-262
1.32422e-261
2.43726e-261
4.28985e-261
7.24337e-261
1.17414e-260
1.82537e-260
2.71555e-260
3.85314e-260
5.19423e-260
6.62617e-260
7.97709e-260
9.07026e-260
9.82045e-260
1.03202e-259
1.08062e-259
1.13977e-259
6.54054e-249
5.94028e-249
5.21323e-249
4.61827e-249
4.03737e-249
3.39166e-249
2.70405e-249
2.04348e-249
1.4698e-249
1.01206e-249
6.71066e-250
4.30739e-250
2.68837e-250
1.63747e-250
9.76171e-251
5.70832e-251
3.27961e-251
1.8532e-251
1.03048e-251
5.63856e-252
3.03419e-252
1.60365e-252
8.3067e-253
4.20265e-253
2.06582e-253
9.78229e-254
4.39755e-254
1.82443e-254
6.53367e-255
1.5831e-255
-2.53981e-256
-7.51365e-256
-7.35579e-256
-5.68289e-256
-3.92065e-256
-2.52057e-256
-1.53986e-256
-9.03349e-257
-5.12114e-257
-2.816e-257
-1.49983e-257
-7.8471e-258
-4.02914e-258
-2.0294e-258
-1.00268e-258
-4.86104e-259
-2.31367e-259
-1.08194e-259
-4.97532e-260
-2.25213e-260
-1.00466e-260
-4.42279e-261
-1.92521e-261
-8.31838e-262
-3.6021e-262
-1.60251e-262
-7.68942e-263
-4.05703e-263
-1.65086e-263
2.02397e-263
1.00078e-262
2.727e-262
6.24395e-262
1.30214e-261
2.54634e-261
4.7312e-261
8.40602e-261
1.43205e-260
2.34026e-260
3.66447e-260
5.48488e-260
7.82159e-260
1.05855e-259
1.35442e-259
1.6342e-259
1.86124e-259
2.01749e-259
2.12101e-259
2.21934e-259
2.3378e-259
1.32846e-248
1.20818e-248
1.06202e-248
9.40984e-249
8.21907e-249
6.89445e-249
5.48573e-249
4.13447e-249
2.96316e-249
2.03099e-249
1.33904e-249
8.53656e-250
5.28598e-250
3.19103e-250
1.88363e-250
1.08977e-250
6.19021e-251
3.45641e-251
1.89839e-251
1.02576e-251
5.4504e-252
2.84484e-252
1.45578e-252
7.28093e-253
3.54158e-253
1.66221e-253
7.42594e-254
3.07714e-254
1.11426e-254
2.88102e-255
-1.98131e-256
-1.06346e-255
-1.08166e-255
-8.44936e-256
-5.85466e-256
-3.7726e-256
-2.30908e-256
-1.35757e-256
-7.71777e-257
-4.25924e-257
-2.28012e-257
-1.19879e-257
-6.18677e-258
-3.13377e-258
-1.55824e-258
-7.60942e-259
-3.65166e-259
-1.72343e-259
-8.00691e-260
-3.66567e-260
-1.65565e-260
-7.38773e-261
-3.26312e-261
-1.43191e-261
-6.29714e-262
-2.83608e-262
-1.36216e-262
-7.00893e-263
-2.5025e-263
4.39043e-263
1.93504e-262
5.18787e-262
1.18744e-261
2.48908e-261
4.90341e-261
9.18558e-261
1.64552e-260
2.82538e-260
4.65044e-260
7.32782e-260
1.10267e-259
1.57927e-259
2.1446e-259
2.75106e-259
3.32567e-259
3.79301e-259
4.11537e-259
4.32795e-259
4.52594e-259
4.76224e-259
2.68095e-248
2.44102e-248
2.14862e-248
1.90412e-248
1.66205e-248
1.39255e-248
1.10619e-248
8.31834e-249
5.94366e-249
4.05784e-249
2.66217e-249
1.6871e-249
1.03743e-249
6.21329e-250
3.63546e-250
2.08319e-250
1.17121e-250
6.46922e-251
3.5135e-251
1.87686e-251
9.8589e-252
5.08806e-252
2.57563e-252
1.27535e-252
6.15017e-253
2.868e-253
1.27788e-253
5.31965e-254
1.96941e-254
5.57924e-255
2.41124e-256
-1.3562e-255
-1.51026e-255
-1.21138e-255
-8.48931e-256
-5.50335e-256
-3.38209e-256
-1.99538e-256
-1.13849e-256
-6.30914e-257
-3.39566e-257
-1.79457e-257
-9.31177e-258
-4.74465e-258
-2.37487e-258
-1.16836e-258
-5.65351e-259
-2.69296e-259
-1.26393e-259
-5.85138e-260
-2.67516e-260
-1.20951e-260
-5.41842e-261
-2.41351e-261
-1.07746e-261
-4.91342e-262
-2.36552e-262
-1.18643e-262
-3.49674e-263
9.48512e-263
3.76867e-262
9.92732e-262
2.26799e-261
4.772e-261
9.45836e-261
1.78434e-260
3.2195e-260
5.56591e-260
9.21868e-260
1.46059e-259
2.20801e-259
3.17419e-259
4.32293e-259
5.55742e-259
6.72884e-259
7.68325e-259
8.34259e-259
8.77555e-259
9.17216e-259
9.64193e-259
5.38111e-248
4.90422e-248
4.32168e-248
3.83071e-248
3.34204e-248
2.79754e-248
2.21929e-248
1.66573e-248
1.18717e-248
8.07779e-249
5.27706e-249
3.32701e-249
2.03344e-249
1.2094e-249
7.02135e-250
3.98917e-250
2.22229e-250
1.21565e-250
6.53613e-251
3.45578e-251
1.79667e-251
9.17948e-252
4.60264e-252
2.25956e-252
1.08201e-252
5.02331e-253
2.23809e-253
9.39446e-254
3.57473e-254
1.11097e-254
1.59842e-255
-1.45527e-255
-1.98127e-255
-1.67112e-255
-1.19587e-255
-7.8372e-256
-4.84901e-256
-2.87538e-256
-1.64808e-256
-9.17606e-257
-4.96631e-257
-2.63882e-257
-1.3769e-257
-7.05817e-258
-3.55647e-258
-1.76267e-258
-8.59972e-259
-4.13372e-259
-1.95958e-259
-9.17101e-260
-4.24253e-260
-1.94266e-260
-8.8218e-261
-3.98617e-261
-1.8055e-261
-8.33627e-262
-4.02641e-262
-1.96449e-262
-4.23458e-263
2.02884e-262
7.37382e-262
1.90874e-261
4.3488e-261
9.1751e-261
1.82779e-260
3.46891e-260
6.29787e-260
1.09528e-259
1.82393e-259
2.9035e-259
4.40671e-259
6.35516e-259
8.6763e-259
1.11742e-258
1.35471e-258
1.54829e-258
1.68213e-258
1.76966e-258
1.84873e-258
1.94185e-258
1.07517e-247
9.80668e-248
8.65007e-248
7.66908e-248
6.6884e-248
5.59464e-248
4.43345e-248
3.32247e-248
2.36286e-248
1.60318e-248
1.04354e-248
6.55006e-249
3.98233e-249
2.35417e-249
1.35746e-249
7.6546e-250
4.22979e-250
2.29399e-250
1.22241e-250
6.40429e-251
3.29931e-251
1.67074e-251
8.30772e-252
4.04873e-252
1.92782e-252
8.92347e-253
3.9821e-253
1.68827e-253
6.60704e-254
2.22634e-254
4.96596e-255
-9.6741e-256
-2.37401e-255
-2.2011e-255
-1.6329e-255
-1.08948e-255
-6.81213e-256
-4.06875e-256
-2.34564e-256
-1.31304e-256
-7.14823e-257
-3.81935e-257
-2.0042e-257
-1.03361e-257
-5.24263e-258
-2.61734e-258
-1.28724e-258
-6.24235e-259
-2.98784e-259
-1.41306e-259
-6.61116e-260
-3.06422e-260
-1.40963e-260
-6.45705e-261
-2.96552e-261
-1.386e-261
-6.7174e-262
-3.17388e-262
-3.54156e-263
4.29037e-262
1.44691e-261
3.68437e-261
8.36815e-261
1.76896e-260
3.53875e-260
6.75046e-260
1.23208e-259
2.15372e-259
3.60324e-259
5.75926e-259
8.77052e-259
1.26825e-258
1.73502e-258
2.23787e-258
2.71598e-258
3.1063e-258
3.37625e-258
3.55205e-258
3.70906e-258
3.89317e-258
2.14015e-247
1.95332e-247
1.72433e-247
1.52912e-247
1.33327e-247
1.11462e-247
8.82517e-248
6.60529e-248
4.68916e-248
3.17397e-248
2.05966e-248
1.28791e-248
7.79498e-249
4.58397e-249
2.62759e-249
1.472e-249
8.07645e-250
4.34725e-250
2.29837e-250
1.19448e-250
6.10444e-251
3.06727e-251
1.51422e-251
7.33369e-252
3.47596e-252
1.60581e-252
7.18321e-253
3.0766e-253
1.23553e-253
4.445e-254
1.25273e-254
9.41026e-256
-2.39781e-255
-2.71692e-255
-2.14696e-255
-1.4749e-255
-9.37304e-256
-5.6568e-256
-3.28605e-256
-1.85126e-256
-1.01423e-256
-5.45072e-257
-2.87681e-257
-1.49259e-257
-7.61988e-258
-3.83117e-258
-1.89888e-258
-9.28681e-259
-4.48627e-259
-2.14304e-259
-1.0135e-259
-4.75202e-260
-2.21308e-260
-1.02694e-260
-4.77922e-261
-2.26009e-261
-1.09859e-261
-4.98501e-262
1.53899e-263
8.97386e-262
2.84414e-261
7.13498e-261
1.61534e-260
3.41944e-260
6.86406e-260
1.31502e-259
2.41104e-259
4.23297e-259
7.11009e-259
1.14036e-258
1.74158e-258
2.52411e-258
3.45899e-258
4.46697e-258
5.4259e-258
6.20906e-258
6.75055e-258
7.10176e-258
7.41244e-258
7.77575e-258
4.24677e-247
3.87813e-247
3.42581e-247
3.03868e-247
2.64909e-247
2.21375e-247
1.75157e-247
1.30963e-247
9.28351e-248
6.27122e-248
4.05905e-248
2.53e-248
1.52538e-248
8.93004e-249
5.0928e-249
2.83694e-249
1.547e-249
8.27246e-250
4.34372e-250
2.24169e-250
1.13763e-250
5.6777e-251
2.78552e-251
1.34198e-251
6.33679e-252
2.92359e-252
1.31127e-252
5.66938e-253
2.32793e-253
8.81237e-254
2.85945e-254
5.97906e-255
-1.4135e-255
-3.00152e-255
-2.67781e-255
-1.9324e-255
-1.25983e-255
-7.72089e-256
-4.53211e-256
-2.57379e-256
-1.4202e-256
-7.68059e-257
-4.07796e-257
-2.12861e-257
-1.09362e-257
-5.53634e-258
-2.76451e-258
-1.36301e-258
-6.64247e-259
-3.20326e-259
-1.53043e-259
-7.25433e-260
-3.41782e-260
-1.60549e-260
-7.56609e-261
-3.61831e-261
-1.76158e-261
-7.56822e-262
1.78773e-262
1.85869e-261
5.59667e-261
1.38553e-260
3.12706e-260
6.62586e-260
1.3338e-259
2.56454e-259
4.71998e-259
8.3174e-259
1.40177e-258
2.2548e-258
3.45184e-258
5.0123e-258
6.87847e-258
8.89183e-258
1.08078e-257
1.23729e-257
1.34542e-257
1.41528e-257
1.47658e-257
1.54816e-257
8.40559e-247
7.67934e-247
6.78751e-247
6.02188e-247
5.2494e-247
4.38544e-247
3.46802e-247
2.59085e-247
1.83434e-247
1.23709e-247
7.98978e-248
4.96659e-248
2.98469e-248
1.74068e-248
9.88398e-249
5.47925e-249
2.9721e-249
1.58035e-249
8.24917e-250
4.23147e-250
2.13448e-250
1.05909e-250
5.16834e-251
2.47882e-251
1.16686e-251
5.37847e-252
2.41836e-252
1.0542e-252
4.40864e-253
1.73479e-253
6.16256e-254
1.75845e-254
1.92119e-255
-2.56083e-255
-3.06079e-255
-2.41761e-255
-1.64393e-255
-1.03155e-255
-6.1465e-256
-3.52794e-256
-1.96356e-256
-1.0695e-256
-5.715e-257
-3.00166e-257
-1.55194e-257
-7.90898e-258
-3.9775e-258
-1.97621e-258
-9.71111e-259
-4.72516e-259
-2.27931e-259
-1.09154e-259
-5.19905e-260
-2.4705e-260
-1.17816e-260
-5.69368e-261
-2.76982e-261
-1.09995e-261
6.06773e-262
3.8172e-261
1.10203e-260
2.69684e-260
6.06885e-260
1.28674e-259
2.59616e-259
5.00676e-259
9.24449e-259
1.6341e-258
2.76183e-258
4.45336e-258
6.83128e-258
9.93504e-258
1.36499e-257
1.76596e-257
2.1476e-257
2.45929e-257
2.67445e-257
2.8129e-257
2.93359e-257
3.07446e-257
1.66028e-246
1.51737e-246
1.3418e-246
1.19071e-246
1.03795e-246
8.66937e-247
6.85297e-247
5.11625e-247
3.61878e-247
2.43719e-247
1.57124e-247
9.74513e-248
5.84039e-248
3.3952e-248
1.92078e-248
1.06042e-248
5.72612e-249
3.03007e-249
1.57365e-249
8.03036e-250
4.02983e-250
1.9896e-250
9.6651e-251
4.61795e-251
2.16818e-251
9.98663e-252
4.50012e-252
1.97507e-252
8.38145e-253
3.39555e-253
1.28153e-253
4.25964e-254
1.03529e-254
-3.34733e-256
-2.90997e-255
-2.80323e-255
-2.05564e-255
-1.34036e-255
-8.17003e-256
-4.7604e-256
-2.6792e-256
-1.47196e-256
-7.92305e-257
-4.18909e-257
-2.1799e-257
-1.11825e-257
-5.66265e-258
-2.83417e-258
-1.4037e-258
-6.88776e-259
-3.35258e-259
-1.62102e-259
-7.80035e-260
-3.74696e-260
-1.80704e-260
-8.81704e-261
-4.2701e-261
-1.50285e-261
1.62537e-261
7.78311e-261
2.1709e-260
5.2598e-260
1.18048e-259
2.50392e-259
5.0613e-259
9.78512e-259
1.81156e-258
3.21052e-258
5.43895e-258
8.78798e-258
1.35029e-257
1.96634e-257
2.70415e-257
3.50076e-257
4.259e-257
4.87809e-257
5.30495e-257
5.57857e-257
5.81579e-257
6.09275e-257
3.27395e-246
2.99302e-246
2.64777e-246
2.35013e-246
2.04866e-246
1.7109e-246
1.35202e-246
1.00885e-246
7.13004e-247
4.7966e-247
3.08777e-247
1.91151e-247
1.14298e-247
6.62666e-248
3.73735e-248
2.05615e-248
1.10607e-248
5.82905e-249
3.0143e-249
1.53142e-249
7.65132e-250
3.76163e-250
1.82029e-250
8.66937e-251
4.06146e-251
1.86955e-251
8.43942e-252
3.72435e-252
1.59868e-252
6.61925e-253
2.60448e-253
9.45335e-254
2.94177e-254
5.87981e-255
-1.38181e-255
-2.78408e-255
-2.39453e-255
-1.67147e-255
-1.05695e-255
-6.29931e-256
-3.60069e-256
-2.00068e-256
-1.0865e-256
-5.78811e-257
-3.03289e-257
-1.5663e-257
-7.98571e-258
-4.02529e-258
-2.0086e-258
-9.93462e-259
-4.87675e-259
-2.37933e-259
-1.15596e-259
-5.60962e-260
-2.73407e-260
-1.3454e-260
-6.45068e-261
-1.85547e-261
3.91815e-261
1.5774e-260
4.27781e-260
1.02764e-259
2.30083e-259
4.88138e-259
9.88148e-259
1.91429e-258
3.55183e-258
6.30823e-258
1.07077e-257
1.73301e-257
2.66646e-257
3.88711e-257
5.34976e-257
6.92929e-257
8.43267e-257
9.65962e-257
1.05045e-256
1.10441e-256
1.15098e-256
1.2054e-256
6.4474e-246
5.89556e-246
5.21727e-246
4.63174e-246
4.03782e-246
3.37184e-246
2.66396e-246
1.98698e-246
1.4034e-246
9.43253e-247
6.06475e-247
3.74865e-247
2.23727e-247
1.2942e-247
7.28033e-248
3.99374e-248
2.14153e-248
1.12472e-248
5.79508e-249
2.93329e-249
1.4601e-249
7.1527e-250
3.45002e-250
1.63868e-250
7.66278e-251
3.52534e-251
1.59359e-251
7.06296e-252
3.05871e-252
1.28716e-252
5.21486e-253
2.00024e-253
7.01713e-254
2.05741e-254
3.29911e-255
-1.68354e-255
-2.41617e-255
-1.94407e-255
-1.31219e-255
-8.1118e-256
-4.74553e-256
-2.67898e-256
-1.47197e-256
-7.91477e-257
-4.18025e-257
-2.17454e-257
-1.11647e-257
-5.66739e-258
-2.84859e-258
-1.41967e-258
-7.02498e-259
-3.45664e-259
-1.69458e-259
-8.30287e-260
-4.08718e-260
-2.02558e-260
-9.53523e-261
-1.8498e-261
8.8962e-261
3.18087e-260
8.4314e-260
2.01079e-259
4.49237e-259
9.53162e-259
1.93173e-258
3.74843e-258
6.96752e-258
1.23966e-257
2.1076e-257
3.4158e-257