/*--------------------------------*- C++ -*----------------------------------*\
  =========                 |
  \\      /  F ield         | OpenFOAM: The Open Source CFD Toolbox
   \\    /   O peration     | Website:  https://openfoam.org
    \\  /    A nd           | Version:  11
     \\/     M anipulation  |
\*---------------------------------------------------------------------------*/
FoamFile
{
    format      ascii;
    class       volScalarField;
    location    "100";
    object      C;
}
// * * * * * * * * * * * * * * * * * * * * * * * * * * * * * * * * * * * * * //

dimensions      [0 0 0 1 0 0 0];

internalField   nonuniform List<scalar> 
427520
(
-1.20107e-312
-1.0502e-311
-1.21995e-311
-1.32204e-311
2.11793e-311
3.132e-311
1.00569e-311
1.43729e-311
1.53742e-311
3.24506e-311
-5.31097e-312
-5.36748e-311
-1.68858e-311
-3.8868e-311
1.77603e-311
5.23538e-311
6.58922e-311
3.32527e-311
2.38034e-311
-2.41942e-311
-2.37102e-311
1.29179e-311
6.05193e-311
5.38546e-311
3.06994e-313
7.70413e-312
2.74145e-311
2.2897e-311
-1.91833e-311
-4.14856e-311
-4.80442e-311
-6.89127e-311
-1.98244e-311
-1.5106e-311
-1.84904e-311
-1.33921e-311
-1.14887e-311
2.61636e-312
-1.72122e-311
-2.68901e-312
5.00691e-312
4.41904e-311
5.247e-311
2.33685e-311
3.07236e-312
3.8794e-311
4.62308e-311
-9.96792e-312
-1.85433e-311
-3.58689e-311
-1.28669e-311
-1.38491e-311
-9.1949e-312
-3.26845e-311
-3.43819e-311
-4.81768e-311
-2.43207e-311
-5.79048e-311
-3.84476e-311
-1.83775e-311
2.5703e-311
2.00666e-312
-8.05576e-312
-9.35631e-312
-1.75119e-311
4.56778e-312
2.39473e-311
3.01587e-313
-1.68187e-312
8.23069e-312
-4.08554e-311
-6.05494e-311
-2.63257e-311
1.95878e-311
6.38526e-312
-3.48119e-311
-4.32242e-311
-4.81657e-311
-5.28208e-311
-1.11615e-312
-7.6407e-311
-2.9668e-311
6.41418e-312
1.50301e-311
8.08486e-311
8.71983e-311
7.97433e-311
4.08986e-311
4.57212e-311
-1.52531e-312
3.23582e-311
-2.65522e-311
-2.88418e-311
-3.96087e-311
2.35241e-311
1.12297e-310
9.74776e-311
8.92709e-311
8.26263e-311
1.79473e-311
-5.3723e-312
3.01474e-312
3.9856e-311
-2.09023e-311
-3.32608e-311
-2.40427e-311
7.95076e-312
3.62539e-311
1.54897e-311
-2.64415e-311
-9.43445e-311
-1.29239e-311
-3.74032e-311
-5.74456e-311
-6.43364e-311
-9.02851e-311
-9.02306e-311
-5.47308e-311
-8.43373e-311
-4.2475e-311
-5.09826e-311
5.5023e-312
1.92284e-311
2.9589e-311
2.31442e-311
1.85804e-311
-2.76885e-311
-8.23277e-311
-5.09912e-311
-3.70647e-311
4.91822e-312
-1.33827e-311
-7.89936e-311
-7.65323e-311
-1.06336e-310
-9.76505e-311
-8.89656e-311
-7.14492e-311
-3.11603e-311
-3.48319e-312
2.4237e-311
1.87292e-311
2.96245e-311
7.2765e-311
7.68106e-311
5.71141e-311
9.0687e-311
5.84454e-311
3.98122e-311
6.10424e-313
-1.64499e-311
-5.60488e-311
-6.7989e-311
-4.42409e-311
-5.24824e-311
-2.35285e-311
-6.44564e-311
-3.49462e-311
-8.16037e-311
-7.76918e-311
6.71784e-311
1.15851e-310
1.60573e-310
9.06884e-311
1.09269e-310
5.23914e-311
3.52228e-311
-1.98288e-311
-1.29734e-311
-1.11133e-311
1.68419e-311
1.99841e-311
1.08993e-311
2.49937e-311
2.07634e-311
8.21285e-311
9.62951e-311
6.05395e-311
6.61554e-311
4.9673e-311
6.10023e-312
4.63585e-314
-4.43006e-311
-7.15817e-311
-8.0372e-311
-4.06145e-311
-1.46976e-311
2.74094e-311
-1.1671e-311
-5.48113e-311
-6.42143e-311
-7.83252e-312
-4.37176e-311
-5.24351e-311
-8.84081e-311
-9.17948e-311
-1.07012e-310
-9.59997e-311
-8.21685e-311
-7.15656e-311
-8.87236e-311
1.95573e-312
1.1792e-311
-7.42108e-311
-3.25647e-311
-8.21027e-311
-8.86341e-311
-8.36585e-311
-6.54611e-311
-4.68084e-311
-1.09006e-311
-9.3505e-311
-9.1231e-311
-1.22008e-310
-1.67248e-310
-1.86997e-310
-1.57988e-310
-1.00381e-310
-2.96564e-312
-7.81727e-312
8.04489e-312
-2.50616e-311
2.08422e-311
4.66191e-311
9.61547e-311
7.46747e-311
7.73801e-311
1.01571e-310
9.18306e-311
2.26118e-311
1.24541e-311
8.54327e-317
-2.68343e-311
-5.03324e-311
-2.6884e-311
-4.59084e-311
-6.34684e-311
-4.48341e-311
6.49749e-311
7.85036e-311
2.34795e-310
2.01816e-310
1.71142e-310
1.4759e-310
8.197e-311
3.14661e-311
1.19443e-311
-1.08147e-311
1.23692e-311
-1.50551e-311
3.18997e-311
4.02192e-311
4.4097e-311
7.93006e-311
4.20678e-311
-2.13975e-312
1.54161e-311
2.71506e-311
5.37927e-311
4.3936e-311
2.55277e-311
2.67147e-311
-7.64186e-312
-3.33643e-311
-7.05953e-312
-2.80928e-312
-2.84153e-311
-4.0884e-311
-3.33976e-311
-1.35778e-310
-9.09599e-311
-2.70168e-311
-9.94402e-313
-6.73258e-312
-8.7119e-311
-1.81063e-310
-1.28459e-310
-1.20756e-310
-7.78819e-311
-5.70938e-311
-2.44544e-311
-6.38765e-311
-7.24546e-311
-9.13411e-311
-9.57761e-311
-8.29805e-311
-1.31238e-310
-1.14142e-310
-1.36779e-310
-7.3843e-311
-5.42842e-311
-8.20377e-311
-1.1579e-310
-1.49168e-310
-1.1672e-310
-1.22916e-310
-1.251e-310
-8.64077e-311
-2.00072e-311
3.55153e-311
7.04612e-311
5.4262e-311
5.25561e-311
8.84338e-311
9.8847e-311
2.44617e-311
5.34871e-311
4.71624e-312
-3.59053e-311
-4.71368e-311
-1.58521e-311
-1.58705e-311
-2.68576e-311
-4.42532e-311
1.40801e-311
6.6964e-311
2.73393e-311
4.76817e-313
8.48731e-311
-3.04928e-311
3.28572e-310
3.27268e-310
2.7137e-310
1.91439e-310
6.45014e-311
1.94254e-311
-1.97719e-312
-1.94698e-311
-3.27924e-311
2.28239e-311
4.61171e-312
2.05812e-311
7.31357e-311
8.46845e-311
5.3289e-311
-7.58399e-312
-3.86713e-311
-1.70924e-311
-3.51149e-311
4.25957e-311
-2.01094e-312
1.77289e-311
2.60119e-311
4.7974e-311
-1.34591e-311
-3.93213e-311
-3.12318e-311
-5.54056e-311
-8.05213e-311
-4.62128e-311
-1.29767e-311
6.34459e-312
4.39902e-311
3.29316e-311
-3.30448e-311
-1.27069e-310
-2.1239e-310
-1.23546e-310
-8.08007e-311
-1.03066e-310
-8.31576e-311
-1.08925e-310
-1.59723e-310
-1.04015e-310
-9.49693e-311
-8.35766e-311
-8.05003e-311
-1.28974e-310
-1.53966e-310
-1.28648e-310
-6.98916e-311
-3.39047e-311
-4.36197e-311
-7.36348e-311
-3.13422e-311
4.27057e-311
1.13452e-312
5.15527e-311
6.19428e-311
8.38894e-311
6.36196e-311
3.71634e-311
2.2522e-311
-1.19789e-311
-1.91286e-311
-4.94017e-311
-9.23961e-311
-1.37583e-310
-1.37118e-310
-9.66578e-311
-1.3224e-310
-1.07212e-310
-7.59528e-311
-3.99052e-311
-2.8926e-311
5.97581e-311
1.39219e-310
1.84167e-310
1.64538e-310
1.47023e-310
3.34193e-311
6.71199e-311
1.77741e-310
2.09254e-310
1.02286e-310
3.61457e-311
4.19765e-312
4.10269e-311
1.46555e-311
6.65699e-311
4.01576e-311
1.37924e-311
2.35587e-311
7.849e-311
1.14992e-310
4.92607e-311
-3.57658e-311
-4.45851e-311
-4.5268e-311
-2.79867e-311
-4.52164e-312
9.12006e-312
1.09287e-311
2.55481e-311
-3.34418e-311
-6.7189e-311
-2.95253e-311
-4.35884e-311
-9.50606e-312
1.28799e-312
-2.08734e-311
-4.3135e-311
-1.15202e-311
2.74987e-311
4.06183e-311
-7.18676e-311
-1.51007e-310
-7.15562e-311
3.7451e-312
3.05843e-311
6.03869e-311
-1.69444e-311
-1.4428e-310
-1.49643e-310
-8.93906e-311
-5.5427e-311
-1.36853e-311
-4.40551e-311
-1.26071e-310
-1.257e-310
-1.30717e-311
3.8603e-311
2.26053e-311
3.61459e-311
3.13679e-311
8.37199e-311
6.34308e-311
3.35023e-311
6.38412e-312
-4.62521e-312
-1.62346e-311
1.24238e-311
-2.82413e-311
-6.73961e-311
-1.5585e-310
-2.87909e-310
-3.00808e-310
-3.70182e-310
-6.00512e-310
-1.25052e-310
1.72784e-311
-5.17897e-311
-4.90075e-311
-2.80046e-312
3.49026e-311
9.98482e-311
1.12632e-310
-1.91855e-311
-1.22385e-310
-1.24031e-310
-9.0743e-312
4.73414e-312
7.87835e-311
1.5492e-310
1.64929e-310
1.01654e-310
5.24961e-311
4.27316e-311
5.55328e-311
1.38679e-312
3.94296e-311
2.23126e-311
1.32112e-311
4.18949e-311
4.48004e-311
7.96238e-311
3.5798e-311
2.62702e-312
-5.71718e-311
-1.31613e-311
-1.9253e-311
-2.00897e-311
-3.98407e-311
7.31874e-312
-2.13958e-311
-5.45826e-311
-1.06036e-310
-1.32454e-310
-1.00948e-310
-6.81313e-311
-5.75483e-311
-2.0007e-311
-3.55166e-311
-5.76235e-312
-1.70888e-312
-3.31615e-311
-4.21567e-311
1.64739e-311
2.1248e-310
7.56739e-310
3.46043e-310
4.76372e-310
-5.77047e-310
-2.30303e-310
-6.60486e-311
-2.44237e-311
-2.25035e-312
-1.6683e-311
-5.49972e-311
-5.65777e-311
-4.28571e-311
-3.69294e-311
2.32711e-311
6.70028e-311
5.10459e-311
1.0496e-311
8.44476e-312
-6.19084e-312
-8.13742e-311
-6.39176e-311
-1.18156e-310
-8.89936e-311
-1.99682e-310
-3.34802e-310
-6.81003e-310
-4.02753e-310
-1.75177e-310
3.71159e-310
3.75812e-310
5.64336e-311
3.56973e-311
-1.74398e-312
-2.35589e-311
-6.41167e-311
2.77129e-311
9.65423e-311
7.9634e-311
-1.25564e-310
-3.14829e-310
-4.70584e-310
3.66659e-310
3.02235e-310
1.77888e-310
2.43719e-310
2.78749e-310
1.86996e-310
1.2974e-310
3.58035e-311
5.88236e-311
7.37128e-311
4.53038e-311
1.43307e-311
3.01122e-311
6.87728e-312
-1.70767e-312
5.87516e-311
2.95322e-311
-9.89223e-312
-6.20337e-312
1.86988e-311
2.94864e-311
-3.56598e-311
1.47334e-311
3.35142e-311
1.32173e-311
-8.14703e-311
-1.73616e-310
-1.90623e-310
-2.38743e-310
-1.88743e-310
-1.25825e-310
-5.55736e-311
-6.45734e-311
-6.07882e-311
-1.87683e-311
-1.84269e-311
3.36352e-311
9.54103e-311
3.86033e-310
9.67631e-310
3.85814e-310
5.30784e-310
-3.53852e-310
-7.53668e-310
-2.03631e-310
-1.21457e-310
-7.1341e-311
-3.15994e-311
-5.26007e-312
1.12135e-311
5.92045e-311
-1.76486e-311
-7.27692e-311
2.14023e-311
5.9623e-311
8.80484e-312
1.98285e-312
-5.8553e-311
-1.40959e-310
-2.6826e-310
-3.55299e-310
-3.9288e-310
-3.80029e-310
-1.58312e-310
-8.3807e-310
-2.92057e-310
-4.21816e-310
-4.98348e-310
-7.11693e-311
-1.67262e-311
-2.77624e-311
-2.29346e-311
-1.42812e-310
-1.62916e-310
-4.67321e-311
2.60818e-311
-7.57292e-312
-7.98722e-311
-6.60507e-311
-1.48992e-310
4.97705e-310
5.2081e-310
4.52486e-310
4.26418e-310
3.06312e-310
2.17586e-310
2.01137e-310
1.31623e-310
1.71464e-310
1.57763e-310
1.29015e-310
1.70852e-310
6.15222e-311
1.48462e-311
1.0423e-310
3.46353e-311
-2.60952e-311
3.74994e-311
5.893e-311
1.16764e-310
1.16412e-310
3.01129e-311
5.57795e-311
6.41649e-311
9.20991e-312
-9.98372e-311
-1.54103e-310
-2.35291e-310
-3.23159e-310
-3.06969e-310
-1.65393e-310
-1.68582e-310
-1.48117e-310
-1.36361e-310
-7.06841e-311
-4.50064e-311
7.8904e-311
2.0709e-310
5.072e-310
5.87582e-310
-1.58791e-310
8.24808e-311
-4.75548e-310
-6.04354e-310
-3.04849e-310
-1.62957e-310
-1.46922e-310
-1.91914e-310
-4.4996e-310
1.76021e-310
8.5019e-310
7.80308e-310
1.8112e-310
1.19365e-310
1.45692e-310
8.02067e-311
3.38148e-311
-1.07643e-310
-2.30594e-310
-4.43793e-310
-7.15153e-310
-1.0106e-309
-5.87892e-310
-5.035e-310
-6.02393e-310
-7.49809e-310
-7.54363e-310
-9.41764e-310
-9.82195e-310
-3.22262e-310
-1.30252e-310
-9.40645e-311
-1.18535e-310
-1.25924e-310
-1.28725e-310
-1.83407e-310
-6.86727e-311
1.32006e-310
3.12984e-310
3.38922e-310
7.79496e-310
8.05811e-310
6.85626e-310
4.9871e-310
3.51059e-310
1.60348e-310
2.05207e-310
1.98306e-310
2.01433e-310
2.15676e-310
2.15346e-310
1.62654e-310
6.15596e-311
-3.74046e-311
5.51789e-311
7.43367e-311
8.84634e-311
1.47439e-310
7.53102e-311
1.20778e-310
1.49987e-310
1.03933e-310
5.4575e-311
3.93406e-311
-4.88926e-313
-1.0012e-310
-1.71222e-310
-2.64299e-310
-3.31474e-310
-3.30397e-310
-2.91259e-310
-2.3873e-310
-2.35993e-310
-2.41913e-310
-2.03825e-310
-5.96019e-311
1.23115e-310
2.1279e-310
3.38206e-310
1.59935e-310
-2.89045e-310
-4.03766e-310
-1.31163e-309
-1.32769e-309
-6.05177e-310
-3.56446e-310
-4.57579e-310
-7.63468e-310
-2.75474e-310
-1.27604e-310
6.97333e-310
7.10506e-310
5.14817e-310
-1.17122e-310
1.31342e-310
1.38487e-310
7.03603e-311
-7.44304e-311
-2.66272e-310
-5.31735e-310
-7.5302e-310
-7.52505e-310
-6.30049e-310
-5.74871e-310
-5.35498e-310
-4.69204e-310
-3.60575e-310
-9.10411e-310
-9.28353e-310
-5.76483e-310
-3.21618e-310
-5.54702e-311
7.21751e-311
1.16212e-310
8.18991e-311
-4.0597e-312
1.10319e-310
2.01889e-310
2.40432e-310
4.079e-310
7.06652e-310
7.0946e-310
7.49112e-310
5.12725e-310
3.65774e-310
1.66895e-310
6.032e-311
1.56969e-310
1.52462e-310
2.23208e-310
3.25032e-310
2.22347e-310
1.94144e-310
8.91879e-311
7.75075e-311
7.90821e-311
1.49977e-310
1.76775e-310
9.29865e-311
1.0256e-310
1.51119e-310
8.66397e-311
6.01988e-311
3.14415e-311
-7.7934e-312
-7.58618e-311
-1.62025e-310
-2.16791e-310
-2.88231e-310
-3.49324e-310
-2.86454e-310
-2.38292e-310
-2.77193e-310
-2.54304e-310
-2.52313e-310
-9.44592e-311
4.94374e-311
1.6194e-310
1.8376e-310
-1.63889e-310
-5.23051e-310
-8.78885e-310
-2.00612e-309
-2.02298e-309
-9.81917e-310
-6.22809e-310
-6.35588e-310
-6.87753e-310
-2.19809e-310
-1.35151e-310
7.60249e-310
7.51344e-310
5.33443e-310
4.74261e-310
6.75519e-310
1.48581e-310
-3.15156e-311
-1.71041e-310
-3.65683e-310
-5.93911e-310
-7.22093e-310
-6.17636e-310
-5.00554e-310
-4.72352e-310
-4.7132e-310
-5.12314e-310
-6.50906e-310
-9.98539e-310
-1.09766e-309
-8.30074e-310
-5.43177e-310
-2.10695e-310
4.49218e-311
2.45285e-310
4.05635e-310
4.32517e-310
4.63886e-310
5.82478e-310
6.6438e-310
6.36669e-310
8.64459e-310
7.9925e-310
7.47328e-310
6.61875e-310
4.8191e-310
1.90543e-310
4.4085e-311
8.3672e-311
1.56122e-310
2.61991e-310
2.6857e-310
2.76075e-310
2.5342e-310
1.71902e-310
1.50617e-310
1.29591e-310
1.65329e-310
1.41404e-310
1.28423e-310
1.16199e-310
1.34158e-310
7.18749e-311
1.06223e-310
9.11289e-311
8.10512e-311
-6.09524e-312
-1.33189e-310
-1.66077e-310
-1.79721e-310
-2.61762e-310
-2.58032e-310
-2.56808e-310
-3.13435e-310
-3.01643e-310
-3.05366e-310
-1.36115e-310
-3.5172e-311
2.13069e-311
-3.07414e-311
-4.55399e-310
-8.93645e-310
-1.50123e-309
-2.66391e-309
-2.53027e-309
-7.18028e-310
-6.69926e-310
-5.79087e-310
-5.38276e-310
-9.09681e-311
3.20884e-310
8.82195e-310
1.35883e-309
7.32828e-310
5.63667e-310
3.22349e-310
-5.08168e-310
-2.88321e-310
-2.9777e-310
-4.22839e-310
-6.86862e-310
-9.04363e-310
-1.23055e-309
-6.1738e-310
-4.8431e-310
-5.00929e-310
-6.22395e-310
-7.1477e-310
-9.41918e-310
-9.17543e-310
-6.50525e-310
-1.82526e-310
3.3767e-310
8.4876e-310
2.00907e-309
2.46264e-309
2.06957e-309
2.57069e-309
1.91649e-309
1.69162e-309
1.54704e-309
1.03225e-309
9.96292e-310
9.25585e-310
7.65946e-310
5.29069e-310
3.39926e-310
1.10168e-310
4.62001e-311
-2.95633e-313
6.67965e-311
1.65995e-310
2.40537e-310
2.24436e-310
1.53124e-310
1.48087e-310
2.26724e-310
2.39615e-310
2.19654e-310
1.33169e-310
3.81986e-311
2.57938e-311
7.68996e-311
1.18703e-310
1.70086e-310
6.67144e-311
4.30812e-312
-5.09813e-311
-1.41962e-310
-1.98645e-310
-2.61901e-310
-2.38559e-310
-2.16182e-310
-2.20521e-310
-2.11138e-310
-2.92575e-310
-1.74253e-310
-2.53364e-310
-6.64394e-310
-3.13539e-310
-5.45735e-310
-1.13022e-309
-2.00354e-309
-3.25024e-309
-3.08853e-309
-1.81775e-309
-1.39583e-309
-6.95188e-310
-4.19521e-310
6.00732e-311
5.70053e-310
1.03037e-309
1.27785e-309
8.74759e-310
8.48596e-310
1.97909e-310
-4.1808e-310
-3.93756e-310
-3.97072e-310
-5.0294e-310
-8.61916e-310
-1.27385e-309
-1.74855e-309
-7.29224e-310
-4.50141e-310
-5.07808e-310
-8.0585e-310
-1.2696e-309
-8.13295e-310
-5.335e-310
-1.74709e-310
3.59294e-310
9.08733e-310
1.51473e-309
2.33909e-309
3.1076e-309
4.31326e-309
4.45871e-309
3.41857e-309
3.09954e-309
2.91127e-309
1.69718e-309
1.5937e-309
1.3854e-309
9.45424e-310
7.19942e-310
4.71494e-310
2.57915e-310
1.58398e-310
1.5123e-310
1.5325e-310
1.49828e-310
2.90904e-310
2.06652e-310
1.21093e-310
1.01365e-310
1.80366e-310
2.46612e-310
2.47428e-310
1.6616e-310
1.1729e-310
8.08413e-311
9.18472e-311
1.31982e-310
1.33147e-310
6.93399e-311
-4.61545e-311
-7.95091e-311
-1.14893e-310
-1.9191e-310
-2.28253e-310
-2.59783e-310
-2.31496e-310
-2.14852e-310
-1.70708e-310
-2.44728e-310
-3.28105e-310
-4.80073e-310
-5.87641e-310
2.19705e-311
-6.93155e-310
-1.47738e-309
-2.76452e-309
-3.30534e-309
-3.52035e-309
-2.12481e-309
-1.60504e-309
-1.38642e-309
-5.33246e-310
9.21244e-311
6.59663e-310
9.92524e-310
1.02267e-309
7.35218e-310
4.43888e-310
1.01179e-310
-4.4148e-310
-5.99003e-310
-9.39776e-310
-1.63244e-309
-1.3739e-309
-1.45827e-309
-1.86314e-309
-1.80552e-310
1.44215e-310
-3.12446e-310
-8.8845e-310
9.88908e-311
5.51084e-310
2.79363e-310
5.05264e-310
9.89413e-310
1.65836e-309
2.28453e-309
2.81707e-309
3.35332e-309
3.89018e-309
3.95158e-309
3.85117e-309
4.28747e-309
3.46245e-309
3.12291e-309
2.92567e-309
2.3139e-309
1.58958e-309
1.0756e-309
7.56276e-310
3.27357e-310
1.86942e-310
1.41643e-310
2.19241e-310
1.49904e-310
1.77785e-310
1.44875e-310
1.31104e-310
1.62311e-310
1.62785e-310
2.06745e-310
2.13423e-310
1.59847e-310
1.02051e-310
2.07957e-311
5.68772e-311
8.71728e-311
1.44323e-310
8.41623e-311
4.92139e-312
-1.30403e-311
-1.61443e-311
-1.20395e-310
-1.57738e-310
-2.03592e-310
-2.6716e-310
-2.59398e-310
-2.038e-310
-2.37557e-310
-4.09426e-310
-6.13016e-310
-1.62953e-310
-7.75996e-310
-9.1052e-310
-1.69532e-309
-2.70869e-309
-3.69297e-309
-3.27205e-309
-1.94846e-309
-2.24989e-309
-1.46055e-309
-6.39805e-310
3.69208e-311
6.03475e-310
8.96528e-310
8.84447e-310
6.14228e-310
1.72036e-310
-5.72554e-310
-6.79217e-310
-9.87367e-310
-1.75995e-309
-1.51272e-309
-8.00734e-310
-4.96081e-310
-8.45213e-310
-2.0327e-310
-4.51184e-312
-1.87043e-310
-9.10443e-310
-2.53781e-311
4.3105e-310
4.73689e-310
7.1254e-310
1.32266e-309
1.95181e-309
2.3484e-309
2.58472e-309
2.73724e-309
2.81483e-309
2.44563e-309
1.47458e-309
-4.45859e-310
-1.48126e-309
6.00926e-309
6.25836e-309
4.58735e-309
3.19057e-309
2.06618e-309
1.26596e-309
6.76961e-310
3.29014e-310
1.46973e-310
2.20578e-310
1.91478e-310
1.59983e-310
1.15527e-310
1.41147e-310
7.61826e-311
1.51412e-310
1.25203e-310
1.39723e-310
5.51318e-311
2.04685e-311
2.49777e-311
4.6638e-312
1.09773e-311
9.99147e-311
8.40486e-311
5.79271e-311
5.79665e-311
3.42364e-311
-3.31293e-311
-5.69607e-311
-1.12195e-310
-1.73851e-310
-1.86289e-310
-2.09883e-310
-2.29491e-310
-4.07021e-310
-6.0161e-310
-4.13951e-310
-7.60946e-310
-1.05177e-309
-1.71231e-309
-2.5551e-309
-3.42473e-309
-3.24678e-309
-2.63754e-309
-2.73838e-309
-1.17056e-309
-6.18776e-310
-9.61015e-311
4.11518e-310
5.83009e-310
6.15924e-310
4.23398e-310
2.29814e-311
-4.91122e-310
-7.8367e-310
-6.08879e-310
-1.29416e-309
-8.55194e-310
-9.03396e-310
-6.56233e-310
3.37006e-311
-3.6438e-310
1.05545e-310
-6.44237e-311
-7.58416e-310
-8.81453e-312
3.96817e-310
6.32074e-310
9.98016e-310
1.51994e-309
1.98619e-309
2.29703e-309
2.48825e-309
2.4155e-309
2.00664e-309
1.00167e-309
9.54465e-310
3.95768e-310
1.18201e-310
8.08208e-309
8.15054e-309
6.66655e-309
5.90588e-309
3.69403e-309
2.11127e-309
1.04469e-309
4.07035e-310
1.05945e-310
3.18431e-311
9.80332e-311
7.09034e-311
9.03875e-311
8.68953e-311
3.99817e-311
6.83064e-311
5.53865e-311
2.32383e-311
2.10972e-311
-1.1339e-311
1.83835e-311
-8.08004e-311
-4.25444e-311
7.30842e-311
1.15584e-310
8.19321e-311
9.85581e-311
1.27149e-310
6.75223e-311
-4.06417e-312
-1.16309e-311
-9.17145e-311
-1.81573e-310
-2.33091e-310
-2.18398e-310
-4.11731e-310
-5.45822e-310
-5.44583e-310
-7.26357e-310
-5.66836e-310
-1.5765e-309
-2.37005e-309
-3.0538e-309
-3.14753e-309
-2.97473e-309
-3.1948e-309
-1.74558e-309
-1.05332e-309
-1.06874e-309
-4.26706e-310
2.03246e-310
-1.66088e-310
-3.22732e-310
-1.89891e-310
-5.27151e-310
-1.01211e-309
-1.77775e-310
-4.57778e-310
-6.36085e-310
-1.13973e-309
-1.21613e-309
-1.38368e-310
2.41346e-310
6.82878e-310
8.25166e-310
-1.74597e-310
-2.50533e-310
-3.47124e-310
5.76297e-310
1.45882e-309
2.55213e-309
2.40273e-309
2.37745e-309
2.30982e-309
2.04772e-309
1.65355e-309
1.23236e-309
1.10641e-309
1.15211e-309
1.24579e-309
8.44004e-309
8.45516e-309
7.81774e-309
7.39328e-309
5.1924e-309
3.73984e-309
1.14787e-309
6.36822e-310
3.00768e-310
1.51614e-310
1.75161e-310
4.40696e-311
9.68278e-311
1.01312e-310
1.19641e-311
1.69701e-311
8.9515e-312
-6.27307e-311
-8.35256e-311
-2.58562e-311
-3.16914e-311
-4.15872e-311
-5.44608e-311
3.35207e-311
1.12505e-310
1.10126e-310
2.5962e-310
7.71083e-310
3.67617e-310
6.32343e-310
2.23982e-310
1.346e-310
-1.26655e-311
-2.58894e-310
-3.18017e-310
-4.50907e-310
-6.05763e-310
-5.07956e-310
-6.05164e-310
-6.92802e-310
-1.48529e-309
-2.12624e-309
-2.78376e-309
-3.06158e-309
-3.10007e-309
-2.9166e-309
-1.565e-309
-1.79601e-309
-1.32309e-309
-6.89253e-310
-3.05682e-310
-5.53711e-310
-1.00775e-309
-4.93133e-310
-7.67969e-310
-1.45005e-309
-1.34256e-309
-1.50387e-309
-8.5662e-310
-4.13813e-310
-3.1931e-310
-5.29392e-310
4.50679e-310
4.00116e-310
-2.05207e-311
-1.83653e-310
-5.92332e-311
1.02598e-310
8.07994e-310
2.47351e-309
3.49964e-309
3.63352e-309
2.84291e-309
2.5879e-309
2.34545e-309
2.1222e-309
2.04653e-309
2.1425e-309
2.31972e-309
2.54832e-309
5.66523e-309
5.92414e-309
6.35644e-309
6.20293e-309
5.65245e-309
3.55551e-309
1.69244e-309
1.61088e-310
1.95857e-310
5.19617e-311
9.36746e-311
1.99034e-311
7.30136e-311
1.1997e-310
1.55378e-310
2.48884e-310
7.9881e-310
2.29208e-310
1.29708e-310
4.95266e-310
1.55e-310
9.55426e-311
2.84626e-311
9.51192e-311
2.28357e-310
4.23772e-310
6.73777e-310
1.50617e-309
1.00907e-309
1.28851e-309
5.82187e-310
2.44934e-310
-1.27686e-310
-9.3777e-310
-1.18937e-309
-1.17092e-309
-8.09428e-310
-5.81896e-310
-6.18025e-310
-8.36242e-310
-1.49617e-309
-2.13575e-309
-2.71873e-309
-3.20884e-309
-2.86546e-309
-2.82877e-309
-2.45941e-309
-1.93491e-309
-1.55834e-309
-9.77321e-310
-6.89079e-310
-8.09042e-310
-9.14518e-310
-8.9487e-310
-1.62323e-309
-1.99277e-309
-1.92102e-309
-1.40783e-309
-9.4946e-310
-5.61918e-310
-2.79934e-310
3.13022e-311
6.7666e-310
1.29429e-309
4.82356e-310
-8.61002e-311
-4.02965e-311
4.10984e-310
1.25718e-309
2.76597e-309
4.26546e-309
4.14615e-309
4.39208e-309
3.70119e-309
3.49247e-309
3.68325e-309
4.45396e-309
4.09416e-309
4.18907e-309
4.44128e-309
3.70788e-310
2.23612e-309
3.6048e-309
4.45779e-309
4.42126e-309
3.48739e-309
2.28767e-309
1.16779e-309
5.75789e-310
2.30729e-310
2.8775e-311
3.37262e-311
6.28561e-311
1.38305e-310
2.20788e-310
3.95416e-310
7.71986e-310
5.36306e-310
8.78018e-310
4.5183e-310
2.30657e-310
1.38036e-310
6.79107e-311
1.88458e-310
4.85945e-310
1.35874e-309
1.73045e-309
2.08054e-309
1.42193e-309
1.12421e-309
7.33107e-310
3.05643e-310
2.5573e-310
-7.54395e-310
-1.17753e-309
-1.23639e-309
-1.45057e-309
-7.43043e-310
-9.97326e-310
-3.10579e-310
-1.6489e-309
-1.71556e-309
-2.89549e-309
-2.80581e-309
-2.94721e-309
-2.02276e-309
-1.70367e-309
-1.79164e-309
-1.41616e-309
-6.67849e-310
-3.30997e-310
-1.0966e-310
-1.4665e-310
-7.93112e-310
-1.57786e-309
-2.25857e-309
-2.19807e-309
-1.31549e-309
-9.44935e-310
-9.18631e-310
-3.39303e-310
-1.33463e-311
-1.04991e-310
5.84924e-310
-6.78994e-311
1.18504e-310
2.24029e-310
4.565e-310
1.04293e-309
1.50631e-309
2.56026e-309
3.92953e-309
4.72914e-309
5.39713e-309
4.86377e-309
5.07404e-309
5.6393e-309
6.19683e-309
7.3116e-309
6.88826e-309
-5.05602e-309
-3.98985e-309
-2.22039e-309
-1.77719e-310
1.9647e-309
1.74685e-309
2.1095e-309
2.09829e-309
1.0279e-309
3.33808e-310
-6.2244e-310
-1.47648e-310
1.01255e-310
1.96216e-310
2.26506e-310
3.91537e-310
5.09596e-310
-3.82167e-310
1.04669e-310
-3.32614e-310
6.97434e-311
1.77151e-310
1.90084e-310
4.2138e-310
8.80921e-310
2.02345e-309
1.88417e-309
1.97532e-309
1.6059e-309
1.27824e-309
9.68812e-310
1.0413e-309
3.06053e-310
-2.41031e-310
-1.19539e-309
-1.30597e-309
-1.28605e-309
-8.6706e-310
-1.10541e-309
2.60456e-311
-9.05028e-310
-1.01613e-309
-2.15175e-309
-2.54819e-309
-2.94751e-309
-1.5088e-309
-1.49707e-309
-1.48913e-309
-1.55045e-309
-1.17359e-311
5.25974e-310
7.86241e-310
6.49908e-310
-3.14744e-310
-7.57939e-310
-1.79232e-309
-1.83466e-309
-1.19608e-309
-8.52632e-310
-5.23157e-310
-1.02498e-310
3.99153e-310
3.78121e-310
6.72516e-310
4.98701e-310
3.87295e-310
5.82172e-310
1.09748e-309
3.2694e-310
1.05578e-309
1.56331e-309
3.16016e-309
3.79526e-309
5.4988e-309
6.54333e-309
6.39292e-309
6.58508e-309
6.98946e-309
7.28804e-309
7.36948e-309
-4.75735e-310
-1.14354e-309
-1.57569e-309
-5.90849e-310
9.87137e-310
-1.82906e-310
1.26644e-309
1.51729e-309
1.20612e-309
3.75809e-310
-2.15331e-310
4.19632e-311
8.40229e-310
3.75134e-310
3.33078e-310
3.65585e-310
4.01472e-310
-1.4624e-310
-1.66271e-310
-8.03252e-310
-1.50947e-310
1.30469e-310
3.59212e-310
7.17474e-310
1.25268e-309
2.44008e-309
2.17705e-309
2.08293e-309
1.26653e-309
1.23782e-309
7.11889e-310
1.49622e-309
4.83072e-310
-4.26728e-310
-1.75226e-309
-1.94921e-309
-1.3344e-309
-8.82602e-310
-8.91928e-310
-3.30581e-310
-8.25652e-310
-1.57236e-309
-1.75169e-309
-2.30851e-309
-2.46452e-309
-1.46659e-309
-1.03122e-309
-5.03586e-310
-4.97632e-310
-2.43768e-310
-3.27975e-310
-1.59479e-310
-1.83974e-310
1.75652e-310
-5.85297e-310
-1.15854e-309
-6.13254e-310
3.56937e-311
4.9548e-310
9.37369e-310
1.09698e-309
7.86614e-310
6.61681e-310
6.02837e-310
4.78951e-310
7.44735e-311
1.08905e-309
1.96817e-309
1.71094e-309
1.53193e-309
2.30157e-309
3.56424e-309
4.86637e-309
6.96512e-309
7.34223e-309
8.07615e-309
7.77837e-309
7.79933e-309
7.89817e-309
7.96763e-309
-3.80508e-309
-4.73233e-309
-4.68623e-309
-3.8361e-309
-2.49001e-309
-1.28838e-309
-6.76342e-310
4.62912e-310
9.07172e-310
1.0515e-309
-3.87863e-310
-3.05547e-311
9.84968e-311
-5.88166e-310
2.62356e-311
2.26565e-310
2.28012e-310
-4.67028e-311
-2.02709e-310
-4.0242e-310
-1.44326e-310
1.59141e-310
4.87427e-310
8.20367e-310
1.05279e-309
2.84666e-309
2.53499e-309
2.89549e-309
2.63193e-309
2.25945e-309
1.80158e-309
1.59721e-309
8.50737e-310
-5.33018e-310
-2.21039e-309
-2.59072e-309
-2.14506e-309
-1.61188e-309
-9.72659e-310
-6.24213e-310
-8.28325e-310
-1.57421e-309
-2.14763e-309
-2.10255e-309
-2.59265e-309
-1.61823e-309
-1.41271e-309
-6.27328e-310
-9.08323e-310
-1.96215e-311
-5.77034e-310
5.69297e-311
-7.24552e-310
-3.06197e-310
-1.1847e-309
-1.29222e-309
-3.06191e-310
4.1855e-310
8.04619e-310
8.61386e-310
4.49548e-310
2.77893e-310
3.35361e-310
7.27528e-310
8.53766e-310
9.94661e-310
2.111e-309
2.0339e-309
1.51325e-309
2.60398e-309
3.07487e-309
4.2982e-309
6.07143e-309
6.74689e-309
7.3317e-309
7.90236e-309
8.17769e-309
8.46376e-309
8.60624e-309
8.60061e-309
-8.21647e-310
-1.37727e-309
-2.30045e-309
-1.5934e-309
-1.18708e-309
-1.34534e-309
-6.99393e-310
9.38154e-311
6.7576e-310
8.03751e-310
3.47585e-310
-3.01946e-310
-1.60059e-310
-1.17818e-309
-9.03747e-310
2.37946e-312
2.55609e-310
7.21773e-310
1.19567e-310
-1.76054e-310
-3.57955e-311
2.54155e-310
7.27224e-310
7.59072e-310
1.55242e-309
2.08494e-309
2.69501e-309
2.93764e-309
2.82104e-309
2.96337e-309
2.27165e-309
2.33788e-309
9.23358e-310
-5.16866e-310
-1.83118e-309
-1.70554e-309
-1.31502e-309
-9.46665e-310
-1.02938e-309
-9.25216e-310
-1.57887e-309
-2.11917e-309
-2.02678e-309
-2.373e-309
-2.53586e-309
-1.47693e-309
-9.64147e-310
-5.09553e-310
-3.55524e-310
-2.02536e-310
-9.36596e-310
-9.31931e-310
-1.53233e-309
-1.18178e-309
-1.36645e-309
-1.48116e-310
2.4566e-310
1.30415e-309
1.13431e-309
1.43148e-309
6.7953e-310
1.13189e-309
7.99511e-310
9.22538e-310
1.11648e-309
1.60648e-309
2.3963e-309
3.05815e-309
2.62389e-309
3.62584e-309
3.47669e-309
5.33453e-309
5.19891e-309
6.33302e-309
7.19921e-309
8.14558e-309
9.02945e-309
1.02147e-308
9.83571e-309
9.6353e-309
-1.08873e-309
-3.30959e-310
-9.20675e-311
-4.25261e-310
-1.35619e-309
-1.25714e-309
-1.53655e-309
-8.47898e-310
-1.93036e-311
6.84901e-310
1.45547e-309
1.3663e-309
4.95076e-310
-1.90982e-310
-2.62928e-310
-3.95913e-310
3.401e-310
8.59815e-310
9.54915e-310
1.39792e-310
6.41628e-311
2.53056e-310
2.8612e-310
1.15409e-309
1.79452e-309
1.79468e-309
2.2561e-309
2.87981e-309
2.18854e-309
2.11086e-309
1.90013e-309
2.54416e-309
1.10605e-309
1.22644e-310
-1.47396e-309
-1.7281e-309
-1.38783e-309
-8.17946e-310
-1.68507e-309
-1.37982e-309
-1.7926e-309
-2.66535e-309
-2.25476e-309
-2.67771e-309
-2.14394e-309
-1.71706e-309
-8.53114e-310
-4.43358e-310
-1.90589e-310
-5.5116e-310
-4.23669e-310
1.05694e-310
-3.17189e-310
-1.64224e-310
-5.21487e-310
1.16417e-310
4.81277e-310
9.83249e-310
5.61438e-310
1.05777e-309
4.15326e-310
1.44846e-309
1.06369e-309
1.05357e-309
1.30945e-309
1.85146e-309
2.77613e-309
4.03082e-309
4.17795e-309
4.69407e-309
4.48254e-309
5.55436e-309
6.37656e-309
7.94565e-309
8.28683e-309
9.11515e-309
1.00073e-308
1.08608e-308
9.26398e-309
9.53762e-309
-1.42647e-309
-1.32697e-309
-3.22984e-310
-8.636e-310
-7.30199e-310
-1.76462e-309
-2.37999e-309
-2.66213e-309
-1.31933e-309
-1.03635e-309
-3.75655e-310
4.58696e-310
9.14639e-311
-9.14174e-311
-1.08813e-310
9.81343e-311
5.07124e-310
7.67729e-310
6.86059e-310
-3.88239e-310
-1.44779e-310
3.03422e-310
7.70727e-310
1.51092e-309
2.0149e-309
1.64098e-309
1.79147e-309
2.56767e-309
1.88177e-309
2.35302e-309
2.35426e-309
2.86893e-309
1.44793e-309
7.06035e-310
-5.80512e-310
-1.55868e-309
-8.70157e-310
-6.38109e-310
-1.60259e-309
-1.87224e-309
-2.7107e-309
-2.70955e-309
-2.36384e-309
-2.56912e-309
-2.54948e-309
-1.9869e-309
-8.85144e-310
-9.6747e-310
-2.44918e-310
-3.24406e-310
-7.33077e-311
7.40556e-310
7.87085e-311
-5.99771e-311
-2.12756e-310
3.07137e-311
2.485e-310
4.92587e-310
-4.44763e-311
6.50059e-310
2.9755e-310
5.75843e-310
1.3489e-309
5.90114e-310
1.59078e-309
9.94909e-310
2.20471e-309
3.43572e-309
3.78376e-309
4.21189e-309
4.66841e-309
5.79321e-309
6.82148e-309
8.08255e-309
9.18652e-309
1.09862e-308
1.1464e-308
1.24802e-308
1.16966e-308
1.15389e-308
-2.58942e-309
-3.34784e-309
-2.41814e-309
-1.85402e-309
-9.96179e-310
-1.41069e-309
-2.74125e-309
-2.70248e-309
-3.29499e-309
-2.0145e-309
-9.98446e-310
-2.27224e-310
-2.89249e-310
-4.31187e-310
-8.19392e-310
-3.17694e-310
-5.98787e-311
-2.72578e-310
3.249e-310
-2.85312e-311
4.73795e-310
3.79522e-310
7.98625e-310
1.02631e-309
2.27827e-309
1.46149e-309
1.91527e-309
1.90856e-309
1.57613e-309
1.8778e-309
1.92136e-309
2.42692e-309
1.59915e-309
5.99983e-310
-9.31152e-310
-1.47433e-309
-1.53395e-309
-6.38851e-310
-1.64182e-309
-2.07721e-309
-2.66336e-309
-2.67732e-309
-2.45742e-309
-2.48963e-309
-2.26968e-309
-1.49464e-309
-7.35567e-310
9.54021e-311
2.10979e-310
4.83315e-310
2.34305e-310
6.16086e-310
2.55597e-310
-5.38699e-311
-5.86019e-310
-2.51959e-310
1.47459e-311
4.53376e-310
7.31323e-310
6.12648e-311
3.79838e-310
3.22755e-310
1.00496e-309
3.51885e-310
5.7736e-310
1.02109e-309
1.7978e-309
2.76829e-309
3.02377e-309
2.80217e-309
3.69182e-309
5.54243e-309
6.83486e-309
7.97995e-309
9.2738e-309
1.15792e-308
1.25281e-308
1.45183e-308
1.48306e-308
1.58924e-308
2.4576e-310
-2.67821e-310
-8.29926e-310
-1.90344e-309
-1.92519e-309
-3.83727e-309
-3.84014e-309
-4.98416e-309
-4.54663e-309
-4.0752e-309
-2.9777e-309
-1.46677e-309
-7.16031e-310
-5.87624e-311
-6.75772e-310
-5.30693e-310
-2.53699e-310
3.67486e-310
3.40608e-310
-8.57709e-310
-2.54858e-310
-3.61406e-310
5.4718e-310
7.94231e-310
1.7596e-309
1.19638e-309
1.35301e-309
1.93423e-309
1.8801e-309
1.98302e-309
1.54389e-309
2.28792e-309
1.40343e-309
4.80578e-310