/*--------------------------------*- C++ -*----------------------------------*\
  =========                 |
  \\      /  F ield         | OpenFOAM: The Open Source CFD Toolbox
   \\    /   O peration     | Website:  https://openfoam.org
    \\  /    A nd           | Version:  11
     \\/     M anipulation  |
\*---------------------------------------------------------------------------*/
FoamFile
{
    format      ascii;
    class       volScalarField;
    location    "5";
    object      C;
}
// * * * * * * * * * * * * * * * * * * * * * * * * * * * * * * * * * * * * * //

dimensions      [0 0 0 1 0 0 0];

internalField   nonuniform List<scalar> 
427520
(
4.41922e-68
4.33675e-68
4.1977e-68
4.01936e-68
3.81424e-68
3.59196e-68
3.36006e-68
3.12454e-68
2.89017e-68
2.66064e-68
2.4388e-68
2.22674e-68
2.02594e-68
1.83736e-68
1.66154e-68
1.49865e-68
1.34863e-68
1.21117e-68
1.08581e-68
9.71992e-69
8.69061e-69
7.76321e-69
6.93054e-69
6.1854e-69
5.52069e-69
4.92959e-69
4.40559e-69
3.94258e-69
3.53488e-69
3.17724e-69
2.86491e-69
2.59358e-69
2.3594e-69
2.15895e-69
1.98926e-69
1.84775e-69
1.73225e-69
1.64095e-69
1.57242e-69
1.52557e-69
1.49965e-69
1.49423e-69
1.50921e-69
1.54483e-69
1.60161e-69
1.68044e-69
1.78249e-69
1.9093e-69
2.06272e-69
2.24497e-69
2.4586e-69
2.70655e-69
2.99208e-69
3.31883e-69
3.69078e-69
4.11224e-69
4.58783e-69
5.1224e-69
5.721e-69
6.38879e-69
7.13091e-69
7.95235e-69
8.85777e-69
9.85126e-69
1.09361e-68
1.21144e-68
1.33868e-68
1.47518e-68
1.62056e-68
1.77412e-68
1.9348e-68
2.10106e-68
2.27087e-68
2.44152e-68
2.60958e-68
2.77069e-68
2.91937e-68
3.04868e-68
3.1495e-68
3.20931e-68
1.36374e-67
1.34453e-67
1.31011e-67
1.26393e-67
1.20892e-67
1.14759e-67
1.08208e-67
1.01416e-67
9.45344e-68
8.76847e-68
8.09658e-68
7.44553e-68
6.82121e-68
6.22793e-68
5.66862e-68
5.14505e-68
4.65804e-68
4.20764e-68
3.79327e-68
3.41387e-68
3.06802e-68
2.75405e-68
2.47013e-68
2.21433e-68
1.98467e-68
1.7792e-68
1.59601e-68
1.43327e-68
1.28925e-68
1.16231e-68
1.05097e-68
9.53852e-69
8.69715e-69
7.97451e-69
7.36081e-69
6.84754e-69
6.42746e-69
6.09451e-69
5.84383e-69
5.67172e-69
5.57558e-69
5.55394e-69
5.60637e-69
5.73356e-69
5.93723e-69
6.22018e-69
6.58628e-69
7.04044e-69
7.58868e-69
8.23806e-69
8.99674e-69
9.87389e-69
1.08797e-68
1.20255e-68
1.33231e-68
1.47855e-68
1.6426e-68
1.82586e-68
2.02972e-68
2.25555e-68
2.50466e-68
2.77824e-68
3.0773e-68
3.40259e-68
3.75451e-68
4.13303e-68
4.53755e-68
4.96676e-68
5.41855e-68
5.8898e-68
6.37622e-68
6.8722e-68
7.37059e-68
7.86251e-68
8.33713e-68
8.78146e-68
9.18006e-68
9.51475e-68
9.76421e-68
9.9035e-68
2.36418e-67
2.33553e-67
2.28311e-67
2.21143e-67
2.12464e-67
2.02646e-67
1.92019e-67
1.80871e-67
1.6945e-67
1.57966e-67
1.46595e-67
1.35476e-67
1.24724e-67
1.14423e-67
1.04638e-67
9.54108e-68
8.67676e-68
7.87203e-68
7.1269e-68
6.44044e-68
5.81099e-68
5.23634e-68
4.71387e-68
4.2407e-68
3.8138e-68
3.43007e-68
3.08642e-68
2.77985e-68
2.50745e-68
2.26648e-68
2.05436e-68
1.86874e-68
1.70744e-68
1.56851e-68
1.45022e-68
1.35105e-68
1.2697e-68
1.20507e-68
1.15628e-68
1.12266e-68
1.10372e-68
1.09919e-68
1.10898e-68
1.13319e-68
1.17213e-68
1.22629e-68
1.29633e-68
1.38312e-68
1.4877e-68
1.61131e-68
1.75534e-68
1.92137e-68
2.11113e-68
2.32649e-68
2.56946e-68
2.84213e-68
3.14665e-68
3.48521e-68
3.85993e-68
4.27287e-68
4.72585e-68
5.22045e-68
5.75784e-68
6.33865e-68
6.96287e-68
7.6296e-68
8.33695e-68
9.08179e-68
9.85954e-68
1.0664e-67
1.14869e-67
1.23181e-67
1.31449e-67
1.3952e-67
1.47216e-67
1.54327e-67
1.60614e-67
1.65806e-67
1.69605e-67
1.71681e-67
3.47865e-67
3.4407e-67
3.37046e-67
3.27344e-67
3.1548e-67
3.01937e-67
2.8715e-67
2.71511e-67
2.55363e-67
2.39006e-67
2.22691e-67
2.0663e-67
1.90996e-67
1.75922e-67
1.61514e-67
1.47847e-67
1.34971e-67
1.22916e-67
1.11693e-67
1.01301e-67
9.17233e-68
8.2937e-68
7.49112e-68
6.761e-68
6.09942e-68
5.50228e-68
4.9654e-68
4.48464e-68
4.05593e-68
3.6754e-68
3.33938e-68
3.04444e-68
2.78744e-68
2.5655e-68
2.37608e-68
2.21691e-68
2.08605e-68
1.98186e-68
1.903e-68
1.84845e-68
1.81747e-68
1.80962e-68
1.82476e-68
1.86303e-68
1.92484e-68
2.01092e-68
2.12222e-68
2.26002e-68
2.42581e-68
2.62138e-68
2.84873e-68
3.11012e-68
3.40799e-68
3.74497e-68
4.12382e-68
4.54742e-68
5.01865e-68
5.54038e-68
6.11535e-68
6.74607e-68
7.43469e-68
8.18288e-68
8.99164e-68
9.86113e-68
1.07905e-67
1.17774e-67
1.28184e-67
1.39078e-67
1.50382e-67
1.61996e-67
1.73797e-67
1.85632e-67
1.97317e-67
2.08636e-67
2.19339e-67
2.29144e-67
2.37734e-67
2.4476e-67
2.49847e-67
2.52597e-67
4.74249e-67
4.6946e-67
4.60544e-67
4.48148e-67
4.32899e-67
4.15385e-67
3.96148e-67
3.75685e-67
3.54437e-67
3.32793e-67
3.11089e-67
2.8961e-67
2.68591e-67
2.48224e-67
2.2866e-67
2.10011e-67
1.92359e-67
1.75755e-67
1.60228e-67
1.45785e-67
1.32418e-67
1.20104e-67
1.08811e-67
9.84961e-68
8.91144e-68
8.06155e-68
7.29474e-68
6.60575e-68
5.9894e-68
5.44064e-68
4.95466e-68
4.52693e-68
4.15327e-68
3.82982e-68
3.55312e-68
3.32012e-68
3.12817e-68
2.975e-68
2.85878e-68
2.77808e-68
2.73187e-68
2.71953e-68
2.74083e-68
2.79594e-68
2.8854e-68
3.01014e-68
3.17146e-68
3.37102e-68
3.61082e-68
3.8932e-68
4.22082e-68
4.59659e-68
5.02369e-68
5.5055e-68
6.04553e-68
6.64737e-68
7.3146e-68
8.05067e-68
8.8588e-68
9.74181e-68
1.0702e-67
1.17408e-67
1.28589e-67
1.40556e-67
1.53289e-67
1.66748e-67
1.80874e-67
1.95586e-67
2.10775e-67
2.263e-67
2.41993e-67
2.57645e-67
2.73013e-67
2.87817e-67
3.01736e-67
3.1441e-67
3.25447e-67
3.3442e-67
3.40875e-67
3.44343e-67
6.19359e-67
6.13466e-67
6.02448e-67
5.87072e-67
5.68077e-67
5.46171e-67
5.22011e-67
4.96204e-67
4.69297e-67
4.41776e-67
4.14064e-67
3.86528e-67
3.59473e-67
3.33151e-67
3.07767e-67
2.83475e-67
2.60391e-67
2.38595e-67
2.18136e-67
1.99035e-67
1.81293e-67
1.64889e-67
1.49793e-67
1.35958e-67
1.23333e-67
1.11859e-67
1.01474e-67
9.21158e-68
8.372e-68
7.62245e-68
6.95692e-68
6.36973e-68
5.85555e-68
5.40949e-68
5.02712e-68
4.70449e-68
4.43817e-68
4.22523e-68
4.06325e-68
3.95037e-68
3.88522e-68
3.86696e-68
3.89525e-68
3.97027e-68
4.0927e-68
4.26369e-68
4.48486e-68
4.75831e-68
5.08655e-68
5.47251e-68
5.91949e-68
6.43113e-68
7.01133e-68
7.66422e-68
8.39406e-68
9.20513e-68
1.01016e-67
1.10876e-67
1.21665e-67
1.33415e-67
1.46147e-67
1.59874e-67
1.74595e-67
1.90292e-67
2.0693e-67
2.24451e-67
2.42769e-67
2.61771e-67
2.81311e-67
3.01204e-67
3.2123e-67
3.41123e-67
3.60576e-67
3.79237e-67
3.96709e-67
4.12555e-67
4.26297e-67
4.37423e-67
4.45395e-67
4.49661e-67
7.87432e-67
7.80279e-67
7.66872e-67
7.48108e-67
7.24866e-67
6.97983e-67
6.68249e-67
6.36393e-67
6.03077e-67
5.68896e-67
5.34372e-67
4.99959e-67
4.66041e-67
4.32939e-67
4.00914e-67
3.7017e-67
3.40863e-67
3.13105e-67
2.86967e-67
2.62489e-67
2.39682e-67
2.18533e-67
1.99011e-67
1.81068e-67
1.64647e-67
1.49683e-67
1.36102e-67
1.23831e-67
1.12795e-67
1.02918e-67
9.41282e-68
8.63557e-68
7.95353e-68
7.36068e-68
6.85151e-68
6.42111e-68
6.06517e-68
5.78001e-68
5.5626e-68
5.41055e-68
5.32211e-68
5.29619e-68
5.33234e-68
5.43071e-68
5.5921e-68
5.81791e-68
6.11011e-68
6.47123e-68
6.90433e-68
7.41297e-68
8.00112e-68
8.67315e-68
9.43374e-68
1.02878e-67
1.12403e-67
1.22962e-67
1.34604e-67
1.47373e-67
1.61307e-67
1.76439e-67
1.92789e-67
2.10365e-67
2.29155e-67
2.49132e-67
2.7024e-67
2.92399e-67
3.15495e-67
3.39378e-67
3.6386e-67
3.88708e-67
4.13643e-67
4.38337e-67
4.62411e-67
4.85436e-67
5.0693e-67
5.26366e-67
5.43173e-67
5.56744e-67
5.66442e-67
5.71617e-67
9.83317e-67
9.74705e-67
9.58536e-67
9.35865e-67
9.07728e-67
8.75119e-67
8.38974e-67
8.00166e-67
7.59489e-67
7.1766e-67
6.75312e-67
6.32999e-67
5.91192e-67
5.50291e-67
5.1062e-67
4.72441e-67
4.35954e-67
4.01306e-67
3.68597e-67
3.37888e-67
3.09201e-67
2.82533e-67
2.57853e-67
2.35115e-67
2.14255e-67
1.95199e-67
1.77865e-67
1.62167e-67
1.48017e-67
1.35327e-67
1.2401e-67
1.13983e-67
1.05169e-67
9.7493e-68
9.08894e-68
8.52981e-68
8.06662e-68
7.69487e-68
7.41081e-68
7.21147e-68
7.09467e-68
7.05903e-68
7.10393e-68
7.22952e-68
7.43672e-68
7.72715e-68
8.10317e-68
8.56777e-68
9.1246e-68
9.77786e-68
1.05323e-67
1.1393e-67
1.23655e-67
1.34555e-67
1.46687e-67
1.60109e-67
1.74875e-67
1.91033e-67
2.08627e-67
2.27686e-67
2.4823e-67
2.70259e-67
2.93753e-67
3.18668e-67
3.44929e-67
3.72428e-67
4.01019e-67
4.30512e-67
4.6067e-67
4.91205e-67
5.21774e-67
5.51978e-67
5.81356e-67
6.09391e-67
6.35506e-67
6.59071e-67
6.79408e-67
6.95796e-67
7.07487e-67
7.13714e-67
1.21263e-66
1.20232e-66
1.18293e-66
1.15571e-66
1.12187e-66
1.08261e-66
1.03902e-66
9.92139e-67
9.42923e-67
8.92226e-67
8.40808e-67
7.89338e-67
7.38389e-67
6.88446e-67
6.39911e-67
5.93106e-67
5.48284e-67
5.05634e-67
4.65287e-67
4.27326e-67
3.91791e-67
3.58687e-67
3.27987e-67
2.99643e-67
2.73586e-67
2.49734e-67
2.27994e-67
2.08268e-67
1.90452e-67
1.74446e-67
1.60145e-67
1.47454e-67
1.36278e-67
1.2653e-67
1.18132e-67
1.11009e-67
1.051e-67
1.0035e-67
9.67121e-68
9.41512e-68
9.26404e-68
9.21622e-68
9.27086e-68
9.4281e-68
9.68894e-68
1.00553e-67
1.05299e-67
1.11163e-67
1.18187e-67
1.2642e-67
1.35918e-67
1.46741e-67
1.58952e-67
1.72617e-67
1.87802e-67
2.04572e-67
2.22987e-67
2.43101e-67
2.64958e-67
2.88591e-67
3.14013e-67
3.41217e-67
3.70173e-67
4.00818e-67
4.33053e-67
4.66741e-67
5.01697e-67
5.37687e-67
5.74418e-67
6.11539e-67
6.48635e-67
6.85222e-67
7.20749e-67
7.54595e-67
7.86074e-67
8.14436e-67
8.38878e-67
8.58546e-67
8.72559e-67
8.80014e-67
1.48195e-66
1.46964e-66
1.44647e-66
1.41391e-66
1.37341e-66
1.32636e-66
1.27406e-66
1.21775e-66
1.15857e-66
1.09752e-66
1.03552e-66
9.73366e-67
9.11755e-67
8.5127e-67
7.92398e-67
7.35534e-67
6.80991e-67
6.29005e-67
5.79743e-67
5.33314e-67
4.89778e-67
4.49149e-67
4.11405e-67
3.76496e-67
3.44349e-67
3.14871e-67
2.87958e-67
2.63497e-67
2.41369e-67
2.21455e-67
2.03638e-67
1.87801e-67
1.73834e-67
1.61636e-67
1.51112e-67
1.42175e-67
1.34749e-67
1.28771e-67
1.24184e-67
1.20945e-67
1.19021e-67
1.18392e-67
1.19047e-67
1.20987e-67
1.24223e-67
1.28777e-67
1.3468e-67
1.41974e-67
1.50708e-67
1.6094e-67
1.72732e-67
1.86156e-67
2.01283e-67
2.18189e-67
2.3695e-67
2.57639e-67
2.80322e-67
3.0506e-67
3.31898e-67
3.6087e-67
3.91984e-67
4.25225e-67
4.60548e-67
4.97871e-67
5.37068e-67
5.77966e-67
6.20338e-67
6.63897e-67
7.08288e-67
7.53085e-67
7.9779e-67
8.41823e-67
8.84525e-67
9.25157e-67
9.62904e-67
9.96876e-67
1.02612e-66
1.04963e-66
1.06637e-66
1.07526e-66
1.79899e-66
1.78432e-66
1.75671e-66
1.71788e-66
1.66954e-66
1.61333e-66
1.55081e-66
1.48343e-66
1.41255e-66
1.33936e-66
1.26496e-66
1.19029e-66
1.11619e-66
1.04336e-66
9.72382e-67
9.03741e-67
8.37817e-67
7.74898e-67
7.15196e-67
6.5885e-67
6.05939e-67
5.5649e-67
5.10487e-67
4.67878e-67
4.28582e-67
3.92497e-67
3.59505e-67
3.29476e-67
3.02273e-67
2.77759e-67
2.55796e-67
2.36249e-67
2.18989e-67
2.03896e-67
1.90858e-67
1.79773e-67
1.70552e-67
1.63116e-67
1.57401e-67
1.53354e-67
1.50937e-67
1.50122e-67
1.50898e-67
1.53265e-67
1.57234e-67
1.62832e-67
1.70094e-67
1.79067e-67
1.8981e-67
2.02387e-67
2.16874e-67
2.3335e-67
2.51899e-67
2.72608e-67
2.95562e-67
3.20843e-67
3.48528e-67
3.78681e-67
4.11352e-67
4.46573e-67
4.84348e-67
5.24652e-67
5.67424e-67
6.12558e-67
6.59898e-67
7.09232e-67
7.60281e-67
8.12696e-67
8.66052e-67
9.19839e-67
9.73456e-67
1.02621e-66
1.07733e-66
1.12592e-66
1.17102e-66
1.21158e-66
1.24647e-66
1.2745e-66
1.29443e-66
1.30502e-66
2.17285e-66
2.1554e-66
2.12254e-66
2.07631e-66
2.01873e-66
1.95173e-66
1.87717e-66
1.79677e-66
1.71212e-66
1.62465e-66
1.53566e-66
1.44628e-66
1.3575e-66
1.27017e-66
1.18497e-66
1.1025e-66
1.02321e-66
9.47455e-67
8.75494e-67
8.07502e-67
7.43582e-67
6.83774e-67
6.28069e-67
5.76411e-67
5.28712e-67
4.84859e-67
4.44715e-67
4.08133e-67
3.74956e-67
3.45023e-67
3.18174e-67
2.94252e-67
2.73107e-67
2.54596e-67
2.38588e-67
2.24964e-67
2.13617e-67
2.04456e-67
1.97403e-67
1.92396e-67
1.89388e-67
1.88348e-67
1.8926e-67
1.92122e-67
1.9695e-67
2.03771e-67
2.12626e-67
2.23572e-67
2.36674e-67
2.52007e-67
2.69659e-67
2.8972e-67
3.12288e-67
3.37462e-67
3.65338e-67
3.96011e-67
4.29565e-67
4.66073e-67
5.05587e-67
5.48139e-67
5.93728e-67
6.42318e-67
6.93828e-67
7.48126e-67
8.0502e-67
8.64252e-67
9.25485e-67
9.88299e-67
1.05218e-66
1.11653e-66
1.18062e-66
1.24363e-66
1.30464e-66
1.3626e-66
1.41636e-66
1.46467e-66
1.50621e-66
1.53956e-66
1.56327e-66
1.57586e-66
2.61427e-66
2.59354e-66
2.55448e-66
2.49951e-66
2.43101e-66
2.35128e-66
2.26251e-66
2.16674e-66
2.06585e-66
1.96155e-66
1.85537e-66
1.74865e-66
1.64259e-66
1.53817e-66
1.43623e-66
1.33748e-66
1.24246e-66
1.1516e-66
1.06521e-66
9.83516e-67
9.06641e-67
8.34645e-67
7.67521e-67
7.05214e-67
6.47626e-67
5.94626e-67
5.46061e-67
5.01761e-67
4.61545e-67
4.25225e-67
3.92616e-67
3.63534e-67
3.37803e-67
3.15258e-67
2.95743e-67
2.79118e-67
2.65259e-67
2.54056e-67
2.45418e-67
2.39271e-67
2.3556e-67
2.34246e-67
2.3531e-67
2.3875e-67
2.44582e-67
2.52837e-67
2.63565e-67
2.76828e-67
2.92702e-67
3.11276e-67
3.32648e-67
3.56925e-67
3.84217e-67
4.14639e-67
4.48302e-67
4.85312e-67
5.25765e-67
5.69742e-67
6.17299e-67
6.68468e-67
7.23242e-67
7.81571e-67
8.43354e-67
9.08428e-67
9.76559e-67
1.04743e-66
1.12065e-66
1.1957e-66
1.27198e-66
1.34875e-66
1.42518e-66
1.50028e-66
1.57295e-66
1.64194e-66
1.70591e-66
1.76338e-66
1.81276e-66
1.8524e-66
1.88057e-66
1.89552e-66
3.13593e-66
3.11132e-66
3.06493e-66
2.99963e-66
2.91823e-66
2.82345e-66
2.71789e-66
2.60396e-66
2.48389e-66
2.35972e-66
2.23324e-66
2.10607e-66
1.97961e-66
1.85503e-66
1.73336e-66
1.61541e-66
1.50184e-66
1.39317e-66
1.28978e-66
1.19193e-66
1.09979e-66
1.01343e-66
9.32854e-67
8.57996e-67
7.88752e-67
7.24973e-67
6.66482e-67
6.13083e-67
5.64566e-67
5.20714e-67
4.8131e-67
4.4614e-67
4.14997e-67
3.87688e-67
3.64031e-67
3.43862e-67
3.27032e-67
3.13413e-67
3.02898e-67
2.954e-67
2.90851e-67
2.89206e-67
2.90443e-67
2.94557e-67
3.01566e-67
3.11506e-67
3.24434e-67
3.40421e-67
3.59557e-67
3.81942e-67
4.07692e-67
4.36929e-67
4.69782e-67
5.0638e-67
5.46854e-67
5.91323e-67
6.39896e-67
6.92664e-67
7.4969e-67
8.11003e-67
8.76591e-67
9.46388e-67
1.02027e-66
1.09804e-66
1.1794e-66
1.264e-66
1.35133e-66
1.44081e-66
1.5317e-66
1.62314e-66
1.71412e-66
1.80348e-66
1.88991e-66
1.97194e-66
2.04797e-66
2.11624e-66
2.17489e-66
2.22196e-66
2.25539e-66
2.27314e-66
3.75288e-66
3.72367e-66
3.6686e-66
3.59107e-66
3.4944e-66
3.38183e-66
3.25641e-66
3.12101e-66
2.97827e-66
2.8306e-66
2.68014e-66
2.5288e-66
2.37824e-66
2.22986e-66
2.08487e-66
1.94425e-66
1.80879e-66
1.6791e-66
1.55564e-66
1.43874e-66
1.32858e-66
1.22528e-66
1.12882e-66
1.03916e-66
9.56164e-67
8.79667e-67
8.09465e-67
7.4533e-67
6.87018e-67
6.34277e-67
5.86853e-67
5.44495e-67
5.06963e-67
4.74029e-67
4.45479e-67
4.2112e-67
4.00778e-67
3.84303e-67
3.71566e-67
3.62465e-67
3.5692e-67
3.54879e-67
3.56311e-67
3.61213e-67
3.69603e-67
3.81524e-67
3.97039e-67
4.16233e-67
4.39208e-67
4.66082e-67
4.96988e-67
5.32067e-67
5.7147e-67
6.15345e-67
6.63843e-67
7.171e-67
7.75243e-67
8.38372e-67
9.06557e-67
9.79827e-67
1.05816e-66
1.14148e-66
1.22963e-66
1.32237e-66
1.41935e-66
1.52013e-66
1.62413e-66
1.73063e-66
1.83877e-66
1.94753e-66
2.05569e-66
2.1619e-66
2.26459e-66
2.36202e-66
2.4523e-66
2.53336e-66
2.60297e-66
2.65881e-66
2.69849e-66
2.71954e-66
4.48287e-66
4.44821e-66
4.38288e-66
4.29087e-66
4.17614e-66
4.0425e-66
3.89358e-66
3.73277e-66
3.56322e-66
3.38775e-66
3.20893e-66
3.029e-66
2.84994e-66
2.67343e-66
2.50088e-66
2.33347e-66
2.17214e-66
2.01761e-66
1.87045e-66
1.73103e-66
1.5996e-66
1.47628e-66
1.36108e-66
1.25393e-66
1.1547e-66
1.06318e-66
9.79151e-67
9.02338e-67
8.3246e-67
7.69222e-67
7.12325e-67
6.61478e-67
6.16399e-67
5.76818e-67
5.42486e-67
5.13175e-67
4.88681e-67
4.68826e-67
4.5346e-67
4.4246e-67
4.35733e-67
4.33215e-67
4.34871e-67
4.40695e-67
4.50708e-67
4.64959e-67
4.83521e-67
5.06491e-67
5.3399e-67
5.66154e-67
6.03138e-67
6.45106e-67
6.92231e-67
7.44687e-67
8.02647e-67
8.66271e-67
9.35701e-67
1.01105e-66
1.0924e-66
1.17978e-66
1.27317e-66
1.37245e-66
1.47744e-66
1.58785e-66
1.70327e-66
1.82317e-66
1.94685e-66
2.07347e-66
2.20199e-66
2.33121e-66
2.45969e-66
2.58581e-66
2.70772e-66
2.82337e-66
2.93051e-66
3.02667e-66
3.10925e-66
3.17549e-66
3.22254e-66
3.2475e-66
5.34697e-66
5.30587e-66
5.22836e-66
5.11921e-66
4.98308e-66
4.8245e-66
4.64776e-66
4.45688e-66
4.25558e-66
4.04722e-66
3.83483e-66
3.62108e-66
3.40831e-66
3.19851e-66
2.99337e-66
2.79427e-66
2.60234e-66
2.41846e-66
2.24326e-66
2.07723e-66
1.92065e-66
1.77367e-66
1.63631e-66
1.5085e-66
1.39008e-66
1.28082e-66
1.18045e-66
1.08866e-66
1.00511e-66
9.29471e-67
8.61381e-67
8.00503e-67
7.46502e-67
6.99065e-67
6.57898e-67
6.22733e-67
5.93328e-67
5.69475e-67
5.50996e-67
5.37747e-67
5.29616e-67
5.26529e-67
5.28442e-67
5.35347e-67
5.47269e-67
5.64263e-67
5.86415e-67
6.13838e-67
6.46672e-67
6.85076e-67
7.29229e-67
7.79324e-67
8.35562e-67
8.98146e-67
9.67274e-67
1.04313e-66
1.12589e-66
1.21567e-66
1.31257e-66
1.41662e-66
1.52777e-66
1.6459e-66
1.77079e-66
1.90208e-66
2.0393e-66
2.18179e-66
2.32874e-66
2.47914e-66
2.63176e-66
2.78517e-66
2.93768e-66
3.08735e-66
3.23201e-66
3.36921e-66
3.49629e-66
3.61034e-66
3.70827e-66
3.7868e-66
3.84258e-66
3.87217e-66
6.37011e-66
6.32136e-66
6.22945e-66
6.09999e-66
5.93852e-66
5.7504e-66
5.54071e-66
5.31422e-66
5.07533e-66
4.82802e-66
4.5759e-66
4.32212e-66
4.06944e-66
3.82025e-66
3.57653e-66
3.33994e-66
3.11181e-66
2.89318e-66
2.68483e-66
2.48732e-66
2.301e-66
2.12604e-66
1.96248e-66
1.81024e-66
1.66912e-66
1.53888e-66
1.41919e-66
1.30969e-66
1.20999e-66
1.11968e-66
1.03835e-66
9.65615e-67
9.01067e-67
8.44341e-67
7.95091e-67
7.53001e-67
7.17787e-67
6.89204e-67
6.6704e-67
6.51125e-67
6.41328e-67
6.3756e-67
6.39769e-67
6.47944e-67
6.62114e-67
6.82342e-67
7.08728e-67
7.41405e-67
7.80534e-67
8.26303e-67
8.7892e-67
9.3861e-67
1.00561e-66
1.08015e-66
1.16247e-66
1.25279e-66
1.35128e-66
1.45812e-66
1.57339e-66
1.69712e-66
1.82928e-66
1.9697e-66
2.11811e-66
2.27409e-66
2.43707e-66
2.60628e-66
2.78074e-66
2.95927e-66
3.14041e-66
3.32244e-66
3.50337e-66
3.68092e-66
3.85248e-66
4.01519e-66
4.16587e-66
4.3011e-66
4.41719e-66
4.51028e-66
4.57639e-66
4.61146e-66
7.58183e-66
7.52403e-66
7.41505e-66
7.26153e-66
7.07004e-66
6.84692e-66
6.5982e-66
6.32954e-66
6.04612e-66
5.7527e-66
5.45351e-66
5.15232e-66
4.8524e-66
4.55657e-66
4.26718e-66
3.98621e-66
3.71523e-66
3.45549e-66
3.2079e-66
2.97313e-66
2.75161e-66
2.54354e-66
2.34899e-66
2.16784e-66
1.99988e-66
1.84482e-66
1.70228e-66
1.57183e-66
1.45301e-66
1.34536e-66
1.24838e-66
1.16161e-66
1.08459e-66
1.01688e-66
9.58064e-67
9.07782e-67
8.65694e-67
8.31511e-67
8.04984e-67
7.85911e-67
7.74138e-67
7.69557e-67
7.72109e-67
7.81778e-67
7.98596e-67
8.22639e-67
8.54023e-67
8.92901e-67
9.39464e-67
9.93931e-67
1.05655e-66
1.12757e-66
1.20728e-66
1.29596e-66
1.39387e-66
1.50127e-66
1.61837e-66
1.74536e-66
1.88235e-66
2.02937e-66
2.18636e-66
2.35313e-66
2.52936e-66
2.71454e-66
2.908e-66
3.10881e-66
3.31584e-66
3.52764e-66
3.74252e-66
3.95842e-66
4.173e-66
4.38353e-66
4.58695e-66
4.77985e-66
4.95848e-66
5.11876e-66
5.25636e-66
5.3667e-66
5.44504e-66
5.4866e-66
9.01712e-66
8.9486e-66
8.81939e-66
8.63736e-66
8.41031e-66
8.14573e-66
7.85078e-66
7.53215e-66
7.19599e-66
6.84794e-66
6.49301e-66
6.13567e-66
5.7798e-66
5.42873e-66
5.08527e-66
4.75174e-66
4.43003e-66
4.1216e-66
3.82756e-66
3.54869e-66
3.2855e-66
3.03825e-66
2.807e-66
2.59164e-66
2.39192e-66
2.20749e-66
2.0379e-66
1.88267e-66
1.74124e-66
1.61306e-66
1.49756e-66
1.39419e-66
1.30241e-66
1.22169e-66
1.15156e-66
1.09158e-66
1.04136e-66
1.00055e-66
9.68852e-67
9.46038e-67
9.3192e-67
9.26371e-67
9.29319e-67
9.40746e-67
9.60689e-67
9.89235e-67
1.02652e-66
1.07272e-66
1.12807e-66
1.19282e-66
1.26725e-66
1.35167e-66
1.44641e-66
1.55179e-66
1.66814e-66
1.79573e-66
1.93484e-66
2.08566e-66
2.24834e-66
2.4229e-66
2.60926e-66
2.80721e-66
3.01635e-66
3.23609e-66
3.46561e-66
3.70383e-66
3.94938e-66
4.20057e-66
4.45538e-66
4.71138e-66
4.96578e-66
5.21536e-66
5.4565e-66
5.68514e-66
5.89685e-66
6.08681e-66
6.24987e-66
6.38062e-66
6.47346e-66
6.5227e-66
1.07174e-65
1.06362e-65
1.0483e-65
1.02672e-65
9.99804e-66
9.68435e-66
9.33462e-66
8.95678e-66
8.55815e-66
8.14538e-66
7.72442e-66
7.30057e-66
6.87842e-66
6.46192e-66
6.05441e-66
5.65864e-66
5.27684e-66
4.91076e-66
4.56171e-66
4.23062e-66
3.9181e-66
3.62445e-66
3.34976e-66
3.0939e-66
2.85658e-66
2.63738e-66
2.43578e-66
2.2512e-66
2.083e-66
1.93053e-66
1.79311e-66
1.67009e-66
1.56083e-66
1.46472e-66
1.3812e-66
1.30975e-66
1.24989e-66
1.20123e-66
1.16341e-66
1.13616e-66
1.11926e-66
1.11256e-66
1.11597e-66
1.12947e-66
1.1531e-66
1.18696e-66
1.23122e-66
1.28608e-66
1.35181e-66
1.42871e-66
1.51711e-66
1.61738e-66
1.72989e-66
1.85503e-66
1.99317e-66
2.14466e-66
2.30979e-66
2.48881e-66
2.68188e-66
2.88902e-66
3.11015e-66
3.34499e-66
3.59308e-66
3.85371e-66
4.12591e-66
4.4084e-66
4.69956e-66
4.99738e-66
5.29946e-66
5.60293e-66
5.90448e-66
6.20029e-66
6.48608e-66
6.75705e-66
7.00794e-66
7.23304e-66
7.42626e-66
7.58118e-66
7.69118e-66
7.74952e-66
1.27319e-65
1.26357e-65
1.24541e-65
1.21983e-65
1.18791e-65
1.15072e-65
1.10926e-65
1.06446e-65
1.0172e-65
9.6825e-66
9.18332e-66
8.68066e-66
8.17999e-66
7.68598e-66
7.2026e-66
6.7331e-66
6.28013e-66
5.84577e-66
5.43156e-66
5.03862e-66
4.66767e-66
4.31909e-66
3.99295e-66
3.68913e-66
3.40728e-66
3.14691e-66
2.90741e-66
2.68808e-66
2.48819e-66
2.30696e-66
2.14359e-66
1.99731e-66
1.86736e-66
1.75303e-66
1.65365e-66
1.5686e-66
1.49734e-66
1.43938e-66
1.39432e-66
1.36181e-66
1.34161e-66
1.33354e-66
1.33748e-66
1.35343e-66
1.38141e-66
1.42156e-66
1.47406e-66
1.53916e-66
1.61716e-66
1.70842e-66
1.81335e-66
1.93235e-66
2.06589e-66
2.2144e-66
2.37834e-66
2.55809e-66
2.75402e-66
2.96641e-66
3.19544e-66
3.44114e-66
3.70341e-66
3.98192e-66
4.27611e-66
4.58514e-66
4.90787e-66
5.24277e-66
5.58792e-66
5.94095e-66
6.29899e-66
6.65867e-66
7.01604e-66
7.36661e-66
7.70527e-66
8.02636e-66
8.32364e-66
8.59036e-66
8.81929e-66
9.00284e-66
9.13316e-66
9.20228e-66
1.51188e-65
1.50047e-65
1.47895e-65
1.44862e-65
1.41079e-65
1.3667e-65
1.31755e-65
1.26444e-65
1.2084e-65
1.15037e-65
1.09118e-65
1.03158e-65
9.72212e-66
9.13629e-66
8.56302e-66
8.00617e-66
7.46889e-66
6.95363e-66
6.46224e-66
5.99605e-66
5.55589e-66
5.14222e-66
4.75517e-66
4.39454e-66
4.05995e-66
3.75082e-66
3.46643e-66
3.20597e-66
2.96855e-66
2.75325e-66
2.55915e-66
2.38532e-66
2.23088e-66
2.09497e-66
1.97681e-66
1.87566e-66
1.79089e-66
1.72192e-66
1.66827e-66
1.62953e-66
1.60542e-66
1.59571e-66
1.60028e-66
1.6191e-66
1.65223e-66
1.69981e-66
1.76205e-66
1.83925e-66
1.93178e-66
2.04004e-66
2.16451e-66
2.30569e-66
2.4641e-66
2.64027e-66
2.83472e-66
3.04793e-66
3.28031e-66
3.53219e-66
3.80379e-66
4.09514e-66
4.4061e-66
4.7363e-66
5.08507e-66
5.45141e-66
5.83396e-66
6.23091e-66
6.63999e-66
7.05838e-66
7.48269e-66
7.90892e-66
8.33241e-66
8.7478e-66
9.14908e-66
9.52952e-66
9.88174e-66
1.01977e-65
1.0469e-65
1.06864e-65
1.08408e-65
1.09227e-65
1.79471e-65
1.78118e-65
1.75567e-65
1.71972e-65
1.67488e-65
1.62262e-65
1.56435e-65
1.50139e-65
1.43496e-65
1.36617e-65
1.296e-65
1.22533e-65
1.15494e-65
1.08548e-65
1.0175e-65
9.51464e-66
8.87747e-66
8.26637e-66
7.68355e-66
7.13056e-66
6.60842e-66
6.11766e-66
5.65843e-66
5.23052e-66
4.83346e-66
4.46658e-66
4.12902e-66
3.81983e-66
3.53796e-66
3.28232e-66
3.05182e-66
2.84536e-66
2.6619e-66
2.50044e-66
2.36003e-66
2.23982e-66
2.13904e-66
2.05703e-66
1.99319e-66
1.94707e-66
1.91831e-66
1.90666e-66
1.91196e-66
1.93419e-66
1.9734e-66
2.02975e-66
2.10352e-66
2.19504e-66
2.30475e-66
2.43312e-66
2.58072e-66
2.74813e-66
2.93598e-66
3.14489e-66
3.37547e-66
3.62827e-66
3.9038e-66
4.20243e-66
4.52441e-66
4.8698e-66
5.23842e-66
5.62981e-66
6.0432e-66
6.47739e-66
6.93077e-66
7.4012e-66
7.88598e-66
8.38177e-66
8.88456e-66
9.3896e-66
9.89137e-66
1.03835e-65
1.0859e-65
1.13097e-65
1.1727e-65
1.21014e-65
1.24227e-65
1.26803e-65
1.28632e-65
1.29602e-65
2.12985e-65
2.11381e-65
2.08357e-65
2.04097e-65
1.98782e-65
1.92587e-65
1.8568e-65
1.78217e-65
1.70343e-65
1.62187e-65
1.53869e-65
1.45491e-65
1.37146e-65
1.2891e-65
1.20851e-65
1.13021e-65
1.05466e-65
9.82194e-66
9.13078e-66
8.47496e-66
7.85569e-66
7.2736e-66
6.72886e-66
6.22124e-66
5.75018e-66
5.31488e-66
4.91434e-66
4.54742e-66
4.21289e-66
3.90946e-66
3.63584e-66
3.39074e-66
3.17291e-66
2.98117e-66
2.81441e-66
2.67162e-66
2.55188e-66
2.4544e-66
2.3785e-66
2.32363e-66
2.28936e-66
2.27539e-66
2.28155e-66
2.30779e-66
2.35419e-66
2.42093e-66
2.50833e-66
2.6168e-66
2.74683e-66
2.899e-66
3.07398e-66
3.27244e-66
3.49514e-66
3.74279e-66
4.01613e-66
4.31581e-66
4.64241e-66
4.99639e-66
5.37803e-66
5.7874e-66
6.22428e-66
6.68814e-66
7.17804e-66
7.69258e-66
8.22983e-66
8.78726e-66
9.36168e-66
9.94913e-66
1.05448e-65
1.11432e-65
1.17377e-65
1.23208e-65
1.28841e-65
1.3418e-65
1.39124e-65
1.43559e-65
1.47365e-65
1.50417e-65
1.52583e-65
1.53732e-65
2.52698e-65
2.50798e-65
2.47214e-65
2.42164e-65
2.35864e-65
2.28522e-65
2.20335e-65
2.11489e-65
2.02155e-65
1.92488e-65
1.82627e-65
1.72696e-65
1.62803e-65
1.5304e-65
1.43485e-65
1.34202e-65
1.25245e-65
1.16653e-65
1.08458e-65
1.00681e-65
9.33375e-66
8.64345e-66
7.9974e-66
7.39534e-66
6.8366e-66
6.32025e-66
5.84509e-66
5.40978e-66
5.01287e-66
4.65283e-66
4.32813e-66
4.03724e-66
3.7787e-66
3.55109e-66
3.35311e-66
3.18355e-66
3.04135e-66
2.92555e-66
2.83535e-66
2.7701e-66
2.72929e-66
2.71257e-66
2.71973e-66
2.75071e-66
2.8056e-66
2.88464e-66
2.98817e-66
3.11668e-66
3.27077e-66
3.45111e-66
3.65849e-66
3.89372e-66
4.15766e-66
4.45119e-66
4.77515e-66
5.13032e-66
5.5174e-66
5.93691e-66
6.38919e-66
6.87431e-66
7.39202e-66
7.94169e-66
8.52218e-66
9.13186e-66
9.76844e-66
1.04289e-65
1.11095e-65
1.18055e-65
1.25113e-65
1.32202e-65
1.39244e-65
1.46152e-65
1.52825e-65
1.59151e-65
1.65007e-65
1.7026e-65
1.74769e-65
1.78384e-65
1.80951e-65
1.82312e-65
2.99759e-65
2.97507e-65
2.93259e-65
2.87274e-65
2.79807e-65
2.71105e-65
2.61402e-65
2.50917e-65
2.39853e-65
2.28394e-65
2.16706e-65
2.04934e-65
1.93207e-65
1.81634e-65
1.70307e-65
1.59303e-65
1.48683e-65
1.38497e-65
1.28781e-65
1.19561e-65
1.10853e-65
1.02668e-65
9.50073e-66
8.78676e-66
8.12415e-66
7.51175e-66
6.94819e-66
6.43186e-66
5.96103e-66
5.53392e-66
5.14869e-66
4.80356e-66
4.49677e-66
4.22666e-66
3.99169e-66
3.79043e-66
3.6216e-66
3.48409e-66
3.37694e-66
3.29939e-66
3.25082e-66
3.23082e-66
3.23915e-66
3.27573e-66
3.34067e-66
3.43424e-66
3.55687e-66
3.70911e-66
3.89167e-66
4.10536e-66
4.35109e-66
4.62984e-66
4.94262e-66
5.29045e-66
5.67435e-66
6.09524e-66
6.55392e-66
7.05103e-66
7.58695e-66
8.16177e-66
8.7752e-66
9.42647e-66
1.01143e-65
1.08366e-65
1.15908e-65
1.23733e-65
1.31796e-65
1.40041e-65
1.48403e-65
1.56801e-65
1.65144e-65
1.73327e-65
1.81231e-65
1.88725e-65
1.95662e-65
2.01885e-65
2.07226e-65
2.11508e-65
2.14548e-65
2.16161e-65
3.55529e-65
3.52859e-65
3.47825e-65
3.40731e-65
3.31881e-65
3.21567e-65
3.10066e-65
2.97639e-65
2.84526e-65
2.70944e-65
2.5709e-65
2.43137e-65
2.29237e-65
2.15518e-65
2.02092e-65
1.89047e-65
1.76459e-65
1.64383e-65
1.52865e-65
1.41934e-65
1.31611e-65
1.21906e-65
1.12823e-65
1.04357e-65
9.65003e-66
8.92385e-66
8.25553e-66
7.64319e-66
7.08479e-66
6.5782e-66
6.12126e-66
5.71185e-66
5.3479e-66
5.02744e-66
4.74863e-66
4.50979e-66
4.30941e-66
4.14617e-66
4.01893e-66
3.92678e-66
3.86901e-66
3.84512e-66
3.85481e-66
3.89801e-66
3.97484e-66
4.08561e-66
4.23082e-66
4.41115e-66
4.62742e-66
4.88059e-66
5.17173e-66
5.502e-66
5.8726e-66
6.28474e-66
6.73961e-66
7.2383e-66
7.78177e-66
8.37076e-66
9.00573e-66
9.68679e-66
1.04136e-65
1.11852e-65
1.2e-65
1.28558e-65
1.37493e-65
1.46763e-65
1.56315e-65
1.66082e-65
1.75987e-65
1.85936e-65
1.95819e-65
2.05513e-65
2.14876e-65
2.23752e-65
2.31969e-65
2.39341e-65
2.45668e-65
2.5074e-65
2.54341e-65
2.56251e-65
4.21617e-65
4.18454e-65
4.12487e-65
4.0408e-65
3.93591e-65
3.81367e-65
3.67736e-65
3.53008e-65
3.37465e-65
3.21368e-65
3.04947e-65
2.8841e-65
2.71934e-65
2.55673e-65
2.39758e-65
2.24296e-65
2.09374e-65
1.9506e-65
1.81405e-65
1.68447e-65
1.5621e-65
1.44705e-65
1.33936e-65
1.23899e-65
1.14584e-65
1.05974e-65
9.8049e-66
9.0788e-66
8.41663e-66
7.81586e-66
7.27396e-66
6.78838e-66
6.35669e-66
5.97656e-66
5.6458e-66
5.36243e-66
5.12466e-66
4.93092e-66
4.77987e-66
4.67042e-66
4.60172e-66
4.5732e-66
4.58449e-66
4.63551e-66
4.72639e-66
4.85751e-66
5.02947e-66
5.24304e-66
5.49921e-66
5.79912e-66
6.14402e-66
6.5353e-66
6.97436e-66
7.46265e-66
8.00155e-66
8.59238e-66
9.23626e-66
9.93406e-66
1.06863e-65
1.14932e-65
1.23542e-65
1.32683e-65
1.42336e-65
1.52474e-65
1.63059e-65
1.7404e-65
1.85355e-65
1.96926e-65
2.08659e-65
2.20444e-65
2.32151e-65
2.43633e-65
2.54725e-65
2.65239e-65
2.74972e-65
2.83704e-65
2.91198e-65
2.97206e-65
3.01471e-65
3.03733e-65
4.99936e-65
4.96186e-65
4.89115e-65
4.79151e-65
4.66721e-65
4.52233e-65
4.36078e-65
4.18622e-65
4.00201e-65
3.81122e-65
3.61661e-65
3.42059e-65
3.22531e-65
3.03258e-65
2.84395e-65
2.66068e-65
2.4838e-65
2.31413e-65
2.15228e-65
1.99868e-65
1.85361e-65
1.71723e-65
1.58957e-65
1.47058e-65
1.36014e-65
1.25806e-65
1.16411e-65
1.07802e-65
9.99505e-66
9.28269e-66
8.64009e-66
8.06426e-66
7.5523e-66
7.10146e-66
6.70914e-66
6.373e-66
6.09091e-66
5.86101e-66
5.68172e-66
5.55176e-66
5.47011e-66
5.43607e-66
5.44924e-66
5.50949e-66
5.617e-66
5.77221e-66
5.97581e-66
6.22873e-66
6.53215e-66
6.88739e-66
7.29595e-66
7.75946e-66
8.27959e-66
8.85804e-66
9.49647e-66
1.01964e-65
1.09592e-65
1.17858e-65
1.2677e-65
1.36328e-65
1.46528e-65
1.57357e-65
1.68792e-65
1.80801e-65
1.9334e-65
2.06348e-65
2.19751e-65
2.33458e-65
2.47356e-65
2.61315e-65
2.75183e-65
2.88784e-65
3.01921e-65
3.14375e-65
3.25904e-65
3.36247e-65
3.45124e-65
3.5224e-65
3.57292e-65
3.59971e-65
5.92747e-65
5.88304e-65
5.79923e-65
5.68115e-65
5.53383e-65
5.36212e-65
5.17067e-65
4.96378e-65
4.74546e-65
4.51935e-65
4.28869e-65
4.05637e-65
3.82492e-65
3.5965e-65
3.37292e-65
3.15569e-65
2.94605e-65
2.74494e-65
2.5531e-65
2.37103e-65
2.19908e-65
2.03741e-65
1.88609e-65
1.74504e-65
1.61412e-65
1.4931e-65
1.38172e-65
1.27965e-65
1.18657e-65
1.10211e-65
1.02592e-65
9.57638e-66
8.96929e-66
8.43464e-66
7.96937e-66
7.57068e-66
7.23606e-66
6.96331e-66
6.75055e-66
6.59625e-66
6.49922e-66
6.45863e-66
6.47399e-66
6.54516e-66
6.67234e-66
6.85605e-66
7.09711e-66
7.39663e-66
7.75597e-66
8.17673e-66
8.66067e-66
9.20971e-66
9.82584e-66
1.05111e-65
1.12673e-65
1.20965e-65
1.30001e-65
1.39793e-65
1.5035e-65
1.61672e-65
1.73755e-65
1.86582e-65
2.00128e-65
2.14354e-65
2.29206e-65
2.44614e-65