/*--------------------------------*- C++ -*----------------------------------*\
  =========                 |
  \\      /  F ield         | OpenFOAM: The Open Source CFD Toolbox
   \\    /   O peration     | Website:  https://openfoam.org
    \\  /    A nd           | Version:  11
     \\/     M anipulation  |
\*---------------------------------------------------------------------------*/
FoamFile
{
    format      ascii;
    class       volScalarField;
    location    "100";
    object      C;
}
// * * * * * * * * * * * * * * * * * * * * * * * * * * * * * * * * * * * * * //

dimensions      [0 0 0 1 0 0 0];

internalField   nonuniform List<scalar> 
427520
(
-2.41398e-208
-2.39075e-208
-2.21848e-208
-1.96323e-208
-1.67877e-208
-1.40031e-208
-1.14711e-208
-9.27192e-209
-7.41754e-209
-5.88489e-209
-4.63594e-209
-3.62882e-209
-2.82337e-209
-2.18362e-209
-1.67857e-209
-1.28217e-209
-9.72867e-210
-7.33009e-210
-5.48238e-210
-4.06919e-210
-2.99661e-210
-2.18912e-210
-1.58631e-210
-1.14017e-210
-8.12862e-211
-5.74815e-211
-4.03183e-211
-2.80493e-211
-1.9353e-211
-1.32411e-211
-8.98161e-212
-6.03847e-212
-4.02257e-212
-2.65415e-212
-1.73386e-212
-1.12093e-212
-7.16825e-213
-4.53194e-213
-2.83082e-213
-1.74554e-213
-1.06145e-213
-6.38493e-214
-3.80237e-214
-2.24302e-214
-1.31116e-214
-7.59697e-215
-4.3639e-215
-2.48558e-215
-1.40397e-215
-7.86542e-216
-4.37086e-216
-2.40959e-216
-1.31794e-216
-7.1526e-217
-3.85188e-217
-2.05844e-217
-1.09161e-217
-5.74444e-218
-2.99957e-218
-1.5541e-218
-7.98873e-219
-4.0742e-219
-2.06152e-219
-1.03515e-219
-5.1616e-220
-2.56046e-220
-1.26965e-220
-6.37061e-221
-3.33035e-221
-1.92488e-221
-1.33625e-221
-1.16418e-221
-1.21567e-221
-1.39843e-221
-1.66638e-221
-1.99002e-221
-2.33832e-221
-2.6665e-221
-2.90869e-221
-2.98365e-221
-1.13075e-207
-9.98238e-208
-8.65283e-208
-7.40137e-208
-6.25094e-208
-5.21586e-208
-4.30307e-208
-3.51311e-208
-2.84107e-208
-2.27793e-208
-1.81216e-208
-1.43119e-208
-1.12253e-208
-8.74493e-209
-6.76643e-209
-5.19911e-209
-3.96596e-209
-3.00249e-209
-2.25524e-209
-1.6802e-209
-1.24133e-209
-9.09291e-210
-6.60339e-210
-4.754e-210
-3.39295e-210
-2.40062e-210
-1.68384e-210
-1.17083e-210
-8.07014e-211
-5.51321e-211
-3.7324e-211
-2.50336e-211
-1.66295e-211
-1.0937e-211
-7.1188e-212
-4.58358e-212
-2.91795e-212
-1.8356e-212
-1.14024e-212
-6.98678e-213
-4.21564e-213
-2.51857e-213
-1.49048e-213
-8.74002e-214
-5.0794e-214
-2.9262e-214
-1.67127e-214
-9.46444e-215
-5.3149e-215
-2.96002e-215
-1.63509e-215
-8.95943e-216
-4.87032e-216
-2.62669e-216
-1.40562e-216
-7.46359e-217
-3.93242e-217
-2.05589e-217
-1.06648e-217
-5.48919e-218
-2.80316e-218
-1.4203e-218
-7.14084e-219
-3.56376e-219
-1.76709e-219
-8.72628e-220
-4.31737e-220
-2.17202e-220
-1.14964e-220
-6.82987e-221
-4.9289e-221
-4.43563e-221
-4.69927e-221
-5.4133e-221
-6.43558e-221
-7.69987e-221
-9.17245e-221
-1.08302e-220
-1.26467e-220
-1.45067e-220
-3.72311e-207
-3.21147e-207
-2.67271e-207
-2.20794e-207
-1.81787e-207
-1.49124e-207
-1.21769e-207
-9.89e-208
-7.9855e-208
-6.40814e-208
-5.11006e-208
-4.04898e-208
-3.18749e-208
-2.49271e-208
-1.93607e-208
-1.49305e-208
-1.14286e-208
-8.68016e-209
-6.53933e-209
-4.88516e-209
-3.61789e-209
-2.6557e-209
-1.93191e-209
-1.39265e-209
-9.94774e-210
-7.04072e-210
-4.93752e-210
-3.43068e-210
-2.36154e-210
-1.61027e-210
-1.08746e-210
-7.27173e-211
-4.81323e-211
-3.15252e-211
-2.04231e-211
-1.30807e-211
-8.27863e-212
-5.17419e-212
-3.19108e-212
-1.93956e-212
-1.15898e-212
-6.86272e-213
-4.02737e-213
-2.34266e-213
-1.35084e-213
-7.72236e-214
-4.37703e-214
-2.45997e-214
-1.371e-214
-7.57783e-215
-4.15428e-215
-2.25911e-215
-1.21875e-215
-6.52337e-216
-3.46455e-216
-1.82587e-216
-9.54907e-217
-4.95608e-217
-2.55279e-217
-1.305e-217
-6.62146e-218
-3.33513e-218
-1.66809e-218
-8.29003e-219
-4.09956e-219
-2.02392e-219
-1.00535e-219
-5.11793e-220
-2.77866e-220
-1.72366e-220
-1.31088e-220
-1.23033e-220
-1.33572e-220
-1.5614e-220
-1.88209e-220
-2.29372e-220
-2.80458e-220
-3.42872e-220
-4.16476e-220
-4.87389e-220
-1.00741e-206
-8.75252e-207
-7.20741e-207
-5.83767e-207
-4.70679e-207
-3.78935e-207
-3.04686e-207
-2.44524e-207
-1.95719e-207
-1.56122e-207
-1.24033e-207
-9.80847e-208
-7.71671e-208
-6.03689e-208
-4.69385e-208
-3.62551e-208
-2.78049e-208
-2.11633e-208
-1.59796e-208
-1.19647e-208
-8.88064e-209
-6.53246e-209
-4.76106e-209
-3.43759e-209
-2.45853e-209
-1.74152e-209
-1.22171e-209
-8.48717e-210
-5.83793e-210
-3.97549e-210
-2.67962e-210
-1.7873e-210
-1.17932e-210
-7.69513e-211
-4.96331e-211
-3.16295e-211
-1.99042e-211
-1.23608e-211
-7.56878e-212
-4.56304e-212
-2.70028e-212
-1.58431e-212
-9.21606e-213
-5.31532e-213
-3.03952e-213
-1.7234e-213
-9.68929e-214
-5.4019e-214
-2.98665e-214
-1.63774e-214
-8.90796e-215
-4.80657e-215
-2.57321e-215
-1.36696e-215
-7.20665e-216
-3.77104e-216
-1.95881e-216
-1.01014e-216
-5.17232e-217
-2.63018e-217
-1.32858e-217
-6.66883e-218
-3.32838e-218
-1.65348e-218
-8.19298e-219
-4.06692e-219
-2.04231e-219
-1.06046e-219
-5.95198e-220
-3.87085e-220
-3.09499e-220
-3.01657e-220
-3.35432e-220
-3.99095e-220
-4.89475e-220
-6.08191e-220
-7.59402e-220
-9.46311e-220
-1.15985e-219
-1.34414e-219
-2.42957e-206
-2.13682e-206
-1.7669e-206
-1.42277e-206
-1.13391e-206
-9.00351e-207
-7.13902e-207
-5.65565e-207
-4.47546e-207
-3.53567e-207
-2.78677e-207
-2.18992e-207
-1.71457e-207
-1.33653e-207
-1.03659e-207
-7.99383e-208
-6.12553e-208
-4.66136e-208
-3.52062e-208
-2.63781e-208
-1.95972e-208
-1.44313e-208
-1.05303e-208
-7.61169e-209
-5.44921e-209
-3.86294e-209
-2.71121e-209
-1.88363e-209
-1.29522e-209
-8.81287e-210
-5.93223e-210
-3.94934e-210
-2.59953e-210
-1.69107e-210
-1.08677e-210
-6.89615e-211
-4.31844e-211
-2.66686e-211
-1.62265e-211
-9.7119e-212
-5.69775e-212
-3.31521e-212
-1.91291e-212
-1.09454e-212
-6.21045e-213
-3.49435e-213
-1.94972e-213
-1.07887e-213
-5.92095e-214
-3.22319e-214
-1.74066e-214
-9.327e-215
-4.95964e-215
-2.6177e-215
-1.37163e-215
-7.13656e-216
-3.68786e-216
-1.89322e-216
-9.65811e-217
-4.8978e-217
-2.47018e-217
-1.2398e-217
-6.19841e-218
-3.09155e-218
-1.54251e-218
-7.74121e-219
-3.95311e-219
-2.10511e-219
-1.22509e-219
-8.33163e-220
-6.94862e-220
-6.98005e-220
-7.91747e-220
-9.56713e-220
-1.1904e-219
-1.49947e-219
-1.89318e-219
-2.37074e-219
-2.8895e-219
-3.30131e-219
-5.41919e-206
-4.82147e-206
-4.02477e-206
-3.24887e-206
-2.57953e-206
-2.03218e-206
-1.59518e-206
-1.24989e-206
-9.78185e-207
-7.64643e-207
-5.96817e-207
-4.64885e-207
-3.61163e-207
-2.79654e-207
-2.1567e-207
-1.65538e-207
-1.26369e-207
-9.5878e-208
-7.22525e-208
-5.40483e-208
-4.01119e-208
-2.95199e-208
-2.15338e-208
-1.55645e-208
-1.11433e-208
-7.90009e-209
-5.54474e-209
-3.85168e-209
-2.64747e-209
-1.80016e-209
-1.2105e-209
-8.04728e-210
-5.28698e-210
-3.43131e-210
-2.1989e-210
-1.39066e-210
-8.67449e-211
-5.33296e-211
-3.22823e-211
-1.92082e-211
-1.11903e-211
-6.46638e-212
-3.70599e-212
-2.10643e-212
-1.18735e-212
-6.63743e-213
-3.67985e-213
-2.02348e-213
-1.10371e-213
-5.97253e-214
-3.20693e-214
-1.70899e-214
-9.04096e-215
-4.74927e-215
-2.478e-215
-1.28462e-215
-6.619e-216
-3.391e-216
-1.72813e-216
-8.7656e-217
-4.42836e-217
-2.23029e-217
-1.12124e-217
-5.63788e-218
-2.84493e-218
-1.44987e-218
-7.55949e-219
-4.13907e-219
-2.49494e-219
-1.76267e-219
-1.518e-219
-1.55796e-219
-1.79226e-219
-2.18943e-219
-2.74957e-219
-3.48777e-219
-4.41625e-219
-5.51097e-219
-6.64533e-219
-7.49352e-219
-1.14243e-205
-1.02626e-205
-8.65735e-206
-7.03299e-206
-5.59107e-206
-4.39131e-206
-3.42589e-206
-2.66252e-206
-2.06438e-206
-1.59785e-206
-1.23479e-206
-9.52524e-207
-7.33187e-207
-5.62839e-207
-4.30645e-207
-3.28198e-207
-2.48964e-207
-1.87856e-207
-1.409e-207
-1.04982e-207
-7.7657e-208
-5.69986e-208
-4.14902e-208
-2.99382e-208
-2.14054e-208
-1.51591e-208
-1.06297e-208
-7.37774e-209
-5.06679e-209
-3.44194e-209
-2.31197e-209
-1.53498e-209
-1.0069e-209
-6.52284e-210
-4.17096e-210
-2.63114e-210
-1.6364e-210
-1.00266e-210
-6.04625e-211
-3.58182e-211
-2.07595e-211
-1.19345e-211
-6.80495e-212
-3.84828e-212
-2.15836e-212
-1.20064e-212
-6.6245e-213
-3.62575e-213
-1.96884e-213
-1.06089e-213
-5.67397e-214
-3.01284e-214
-1.58883e-214
-8.32412e-215
-4.33442e-215
-2.24409e-215
-1.15577e-215
-5.92466e-216
-3.02473e-216
-1.53912e-216
-7.81305e-217
-3.96143e-217
-2.0094e-217
-1.02211e-217
-5.23383e-218
-2.71695e-218
-1.44948e-218
-8.16098e-219
-5.07647e-219
-3.69529e-219
-3.2529e-219
-3.3824e-219
-3.92228e-219
-4.81956e-219
-6.07798e-219
-7.72197e-219
-9.75387e-219
-1.20817e-218
-1.4401e-218
-1.60625e-218
-2.30855e-205
-2.08998e-205
-1.78049e-205
-1.45755e-205
-1.1633e-205
-9.13835e-206
-7.10785e-206
-5.49388e-206
-4.22883e-206
-3.24552e-206
-2.48501e-206
-1.89859e-206
-1.44728e-206
-1.10045e-206
-8.34255e-207
-6.30254e-207
-4.74209e-207
-3.55138e-207
-2.64561e-207
-1.95924e-207
-1.44151e-207
-1.05309e-207
-7.63467e-208
-5.48995e-208
-3.9137e-208
-2.76472e-208
-1.9345e-208
-1.34017e-208
-9.18853e-209
-6.23232e-209
-4.1801e-209
-2.77119e-209
-1.81504e-209
-1.17389e-209
-7.49307e-210
-4.71766e-210
-2.92781e-210
-1.78969e-210
-1.07638e-210
-6.35786e-211
-3.67259e-211
-2.10422e-211
-1.19576e-211
-6.73952e-212
-3.76753e-212
-2.08907e-212
-1.14913e-212
-6.27137e-213
-3.39646e-213
-1.82586e-213
-9.74573e-214
-5.1668e-214
-2.72183e-214
-1.42535e-214
-7.42371e-215
-3.84762e-215
-1.98565e-215
-1.02106e-215
-5.23585e-216
-2.6799e-216
-1.37069e-216
-7.01569e-217
-3.60024e-217
-1.8573e-217
-9.67291e-218
-5.12334e-218
-2.79828e-218
-1.61756e-218
-1.03334e-218
-7.68784e-219
-6.8562e-219
-7.16997e-219
-8.33483e-219
-1.0255e-218
-1.29333e-218
-1.63957e-218
-2.05989e-218
-2.52919e-218
-2.98236e-218
-3.29705e-218
-4.51551e-205
-4.11346e-205
-3.53465e-205
-2.91581e-205
-2.33905e-205
-1.84121e-205
-1.43088e-205
-1.10226e-205
-8.43886e-206
-6.43157e-206
-4.88445e-206
-3.6984e-206
-2.79255e-206
-2.10266e-206
-1.57846e-206
-1.18099e-206
-8.80301e-207
-6.53396e-207
-4.82676e-207
-3.54674e-207
-2.59092e-207
-1.88056e-207
-1.35546e-207
-9.69657e-208
-6.88109e-208
-4.84154e-208
-3.37586e-208
-2.33158e-208
-1.59433e-208
-1.07884e-208
-7.22075e-209
-4.77788e-209
-3.12386e-209
-2.01704e-209
-1.28545e-209
-8.08057e-210
-5.00705e-210
-3.05584e-210
-1.83494e-210
-1.08205e-210
-6.23985e-211
-3.56894e-211
-2.02459e-211
-1.13916e-211
-6.3578e-212
-3.52011e-212
-1.93373e-212
-1.05418e-212
-5.70457e-213
-3.06518e-213
-1.63597e-213
-8.67685e-214
-4.57536e-214
-2.39992e-214
-1.25295e-214
-6.51515e-215
-3.37663e-215
-1.74571e-215
-9.0116e-216
-4.64999e-216
-2.40158e-216
-1.24347e-216
-6.46808e-217
-3.38975e-217
-1.79772e-217
-9.72043e-218
-5.43201e-218
-3.21593e-218
-2.09959e-218
-1.58563e-218
-1.42254e-218
-1.48741e-218
-1.72545e-218
-2.11796e-218
-2.66318e-218
-3.3608e-218
-4.19385e-218
-5.10392e-218
-5.96118e-218
-6.54293e-218
-8.6101e-205
-7.88256e-205
-6.8233e-205
-5.66863e-205
-4.57169e-205
-3.60936e-205
-2.80632e-205
-2.15783e-205
-1.64559e-205
-1.24713e-205
-9.40483e-206
-7.06328e-206
-5.28554e-206
-3.94184e-206
-2.92987e-206
-2.17012e-206
-1.60143e-206
-1.177e-206
-8.61239e-207
-6.27126e-207
-4.54219e-207
-3.27068e-207
-2.34018e-207
-1.66293e-207
-1.17296e-207
-8.20824e-208
-5.69574e-208
-3.91705e-208
-2.6684e-208
-1.7997e-208
-1.20109e-208
-7.92757e-209
-5.17191e-209
-3.33315e-209
-2.12074e-209
-1.33127e-209
-8.23927e-210
-5.02344e-210
-3.01397e-210
-1.77625e-210
-1.02401e-210
-5.85514e-211
-3.32058e-211
-1.86797e-211
-1.04245e-211
-5.77215e-212
-3.17178e-212
-1.73007e-212
-9.37033e-213
-5.04124e-213
-2.69526e-213
-1.43271e-213
-7.57623e-214
-3.98798e-214
-2.09101e-214
-1.09293e-214
-5.69933e-215
-2.968e-215
-1.54518e-215
-8.05202e-216
-4.20601e-216
-2.20617e-216
-1.16458e-216
-6.20529e-217
-3.35237e-217
-1.84983e-217
-1.05624e-217
-6.38705e-218
-4.24357e-218
-3.23615e-218
-2.90577e-218
-3.02479e-218
-3.48956e-218
-4.26174e-218
-5.33179e-218
-6.68878e-218
-8.28637e-218
-1.00004e-217
-1.15837e-217
-1.26397e-217
-1.60898e-204
-1.47892e-204
-1.2881e-204
-1.07685e-204
-8.72915e-205
-6.91441e-205
-5.38258e-205
-4.1352e-205
-3.14476e-205
-2.37251e-205
-1.77839e-205
-1.32591e-205
-9.83964e-206
-7.27146e-206
-5.35237e-206
-3.92456e-206
-2.86639e-206
-2.08503e-206
-1.51016e-206
-1.08876e-206
-7.81053e-207
-5.57308e-207
-3.95351e-207
-2.78701e-207
-1.95141e-207
-1.35642e-207
-9.35516e-208
-6.39864e-208
-4.33781e-208
-2.91314e-208
-1.93695e-208
-1.27435e-208
-8.29116e-209
-5.33131e-209
-3.38585e-209
-2.1224e-209
-1.3122e-209
-7.9953e-210
-4.79587e-210
-2.82697e-210
-1.63109e-210
-9.33439e-211
-5.29876e-211
-2.98398e-211
-1.66732e-211
-9.24545e-212
-5.08902e-212
-2.78143e-212
-1.51004e-212
-8.14676e-213
-4.36987e-213
-2.33175e-213
-1.23851e-213
-6.55273e-214
-3.45605e-214
-1.81861e-214
-9.55666e-215
-5.02031e-215
-2.63949e-215
-1.39076e-215
-7.35521e-216
-3.91156e-216
-2.09655e-216
-1.13599e-216
-6.24979e-217
-3.51608e-217
-2.04785e-217
-1.26152e-217
-8.50066e-218
-6.52238e-218
-5.84221e-218
-6.03772e-218
-6.91114e-218
-8.38247e-218
-1.04208e-217
-1.29873e-217
-1.59732e-217
-1.91301e-217
-2.2001e-217
-2.38908e-217
-2.95877e-204
-2.72836e-204
-2.3886e-204
-2.00772e-204
-1.63509e-204
-1.29939e-204
-1.01309e-204
-7.78114e-205
-5.90548e-205
-4.43892e-205
-3.31015e-205
-2.45194e-205
-1.80575e-205
-1.32303e-205
-9.64805e-206
-7.00455e-206
-5.0635e-206
-3.64469e-206
-2.61201e-206
-1.86348e-206
-1.32315e-206
-9.34771e-207
-6.56837e-207
-4.58879e-207
-3.18595e-207
-2.19724e-207
-1.50455e-207
-1.02234e-207
-6.89e-208
-4.60293e-208
-3.04644e-208
-1.99636e-208
-1.29452e-208
-8.30097e-209
-5.26037e-209
-3.29212e-209
-2.03327e-209
-1.23829e-209
-7.42852e-210
-4.38217e-210
-2.53257e-210
-1.45189e-210
-8.25757e-211
-4.65998e-211
-2.60983e-211
-1.45092e-211
-8.00938e-212
-4.39173e-212
-2.39293e-212
-1.29626e-212
-6.98484e-213
-3.74622e-213
-2.00123e-213
-1.06561e-213
-5.66048e-214
-3.00235e-214
-1.59167e-214
-8.4433e-215
-4.48717e-215
-2.39243e-215
-1.28176e-215
-6.91339e-216
-3.76257e-216
-2.07245e-216
-1.16024e-216
-6.6468e-217
-3.94161e-217
-2.46782e-217
-1.68225e-217
-1.29572e-217
-1.15573e-217
-1.1841e-217
-1.3431e-217
-1.61618e-217
-1.99516e-217
-2.46973e-217
-3.01662e-217
-3.58797e-217
-4.10117e-217
-4.43561e-217
-5.37124e-204
-4.96586e-204
-4.36612e-204
-3.68694e-204
-3.01501e-204
-2.40328e-204
-1.87682e-204
-1.44163e-204
-1.09248e-204
-8.18682e-205
-6.0777e-205
-4.47592e-205
-3.27342e-205
-2.37927e-205
-1.71976e-205
-1.23668e-205
-8.85007e-206
-6.30394e-206
-4.46978e-206
-3.15476e-206
-2.2162e-206
-1.54933e-206
-1.07763e-206
-7.45508e-207
-5.128e-207
-3.50576e-207
-2.38103e-207
-1.60581e-207
-1.07484e-207
-7.13657e-208
-4.69768e-208
-3.06388e-208
-1.97875e-208
-1.26464e-208
-7.9931e-209
-4.99278e-209
-3.0799e-209
-1.87478e-209
-1.12498e-209
-6.64361e-210
-3.84791e-210
-2.21123e-210
-1.26093e-210
-7.13619e-211
-4.00925e-211
-2.23664e-211
-1.23938e-211
-6.82434e-212
-3.73558e-212
-2.03387e-212
-1.10207e-212
-5.94712e-213
-3.19839e-213
-1.71566e-213
-9.18724e-214
-4.91601e-214
-2.63128e-214
-1.41042e-214
-7.58076e-215
-4.09144e-215
-2.22096e-215
-1.21485e-215
-6.71124e-216
-3.75535e-216
-2.1372e-216
-1.245e-216
-7.50386e-217
-4.76552e-217
-3.28031e-217
-2.5332e-217
-2.24874e-217
-2.28326e-217
-2.56544e-217
-3.06159e-217
-3.75253e-217
-4.61446e-217
-5.60017e-217
-6.62012e-217
-7.52725e-217
-8.11386e-217
-9.65019e-204
-8.94073e-204
-7.88886e-204
-6.68784e-204
-5.48852e-204
-4.38685e-204
-3.43124e-204
-2.63625e-204
-1.99546e-204
-1.49154e-204
-1.10296e-204
-8.08078e-205
-5.87238e-205
-4.23684e-205
-3.03704e-205
-2.16416e-205
-1.53373e-205
-1.08136e-205
-7.58662e-206
-5.29714e-206
-3.68101e-206
-2.54571e-206
-1.75193e-206
-1.19953e-206
-8.16921e-207
-5.53215e-207
-3.72387e-207
-2.49059e-207
-1.65432e-207
-1.09077e-207
-7.13534e-208
-4.62826e-208
-2.975e-208
-1.89389e-208
-1.19328e-208
-7.43633e-209
-4.58038e-209
-2.78632e-209
-1.67233e-209
-9.88799e-210
-5.74115e-210
-3.30831e-210
-1.89231e-210
-1.07459e-210
-6.05979e-211
-3.39443e-211
-1.8894e-211
-1.04546e-211
-5.75337e-212
-3.15074e-212
-1.71809e-212
-9.3352e-213
-5.05797e-213
-2.73506e-213
-1.47737e-213
-7.97952e-214
-4.31412e-214
-2.33748e-214
-1.27088e-214
-6.94361e-215
-3.81844e-215
-2.11745e-215
-1.18666e-215
-6.73977e-216
-3.89472e-216
-2.30378e-216
-1.40898e-216
-9.06166e-217
-6.29069e-217
-4.86838e-217
-4.30235e-217
-4.33148e-217
-4.82267e-217
-5.70928e-217
-6.94958e-217
-8.49285e-217
-1.02471e-216
-1.20483e-216
-1.36377e-216
-1.46593e-216
-1.71936e-203
-1.59569e-203
-1.4121e-203
-1.20106e-203
-9.88684e-204
-7.92113e-204
-6.20449e-204
-4.76836e-204
-3.60596e-204
-2.68943e-204
-1.98194e-204
-1.44533e-204
-1.04428e-204
-7.48314e-205
-5.32259e-205
-3.76039e-205
-2.64032e-205
-1.84327e-205
-1.27993e-205
-8.84209e-206
-6.0782e-206
-4.15798e-206
-2.83061e-206
-1.91751e-206
-1.29239e-206
-8.66479e-207
-5.77712e-207
-3.82921e-207
-2.52224e-207
-1.65027e-207
-1.07202e-207
-6.9105e-208
-4.41807e-208
-2.79974e-208
-1.75751e-208
-1.09218e-208
-6.7145e-209
-4.08063e-209
-2.44926e-209
-1.44981e-209
-8.43902e-210
-4.87704e-210
-2.79876e-210
-1.59518e-210
-9.03224e-211
-5.08223e-211
-2.8428e-211
-1.58145e-211
-8.75394e-212
-4.8243e-212
-2.64867e-212
-1.44975e-212
-7.91716e-213
-4.31747e-213
-2.35328e-213
-1.28334e-213
-7.00972e-214
-3.83943e-214
-2.11154e-214
-1.16765e-214
-6.50272e-215
-3.65369e-215
-2.07563e-215
-1.19544e-215
-7.00619e-216
-4.20243e-216
-2.60426e-216
-1.69391e-216
-1.18498e-216
-9.1909e-217
-8.09308e-217
-8.08847e-217
-8.93271e-217
-1.04976e-216
-1.26975e-216
-1.54302e-216
-1.85214e-216
-2.16757e-216
-2.44413e-216
-2.62108e-216
-3.04272e-203
-2.82784e-203
-2.50857e-203
-2.13953e-203
-1.76575e-203
-1.41757e-203
-1.11175e-203
-8.54664e-204
-6.45812e-204
-4.80745e-204
-3.532e-204
-2.565e-204
-1.84358e-204
-1.31284e-204
-9.27105e-205
-6.49756e-205
-4.52232e-205
-3.12756e-205
-2.15023e-205
-1.47015e-205
-9.99907e-206
-6.76662e-206
-4.5567e-206
-3.05362e-206
-2.03635e-206
-1.3512e-206
-8.91944e-207
-5.85605e-207
-3.82289e-207
-2.48052e-207
-1.59911e-207
-1.02377e-207
-6.50572e-208
-4.10133e-208
-2.56354e-208
-1.58774e-208
-9.73788e-209
-5.90998e-209
-3.54621e-209
-2.10099e-209
-1.2258e-209
-7.10405e-210
-4.09016e-210
-2.33995e-210
-1.3305e-210
-7.5214e-211
-4.2288e-211
-2.36571e-211
-1.3175e-211
-7.30868e-212
-4.04116e-212
-2.22877e-212
-1.22705e-212
-6.74946e-213
-3.7127e-213
-2.04437e-213
-1.12811e-213
-6.24559e-214
-3.47357e-214
-1.94341e-214
-1.09549e-214
-6.23256e-215
-3.5862e-215
-2.09236e-215
-1.24228e-215
-7.54655e-216
-4.73265e-216
-3.10998e-216
-2.19128e-216
-1.70406e-216
-1.49703e-216
-1.48764e-216
-1.63189e-216
-1.90579e-216
-2.29256e-216
-2.77236e-216
-3.31298e-216
-3.86181e-216
-4.34051e-216
-4.64569e-216
-5.35529e-203
-4.9828e-203
-4.4291e-203
-3.78618e-203
-3.13148e-203
-2.51836e-203
-1.97717e-203
-1.52034e-203
-1.14803e-203
-8.5316e-204
-6.25115e-204
-4.52274e-204
-3.23532e-204
-2.29081e-204
-1.60706e-204
-1.11794e-204
-7.71724e-205
-5.28991e-205
-3.60262e-205
-2.43883e-205
-1.64174e-205
-1.09933e-205
-7.32407e-206
-4.85562e-206
-3.2036e-206
-2.10347e-206
-1.37438e-206
-8.93497e-207
-5.77834e-207
-3.71639e-207
-2.37633e-207
-1.51006e-207
-9.53222e-208
-5.97448e-208
-3.71612e-208
-2.29255e-208
-1.40195e-208
-8.49261e-209
-5.09208e-209
-3.01833e-209
-1.76453e-209
-1.02522e-209
-5.92094e-210
-3.39957e-210
-1.94099e-210
-1.10234e-210
-6.22968e-211
-3.50476e-211
-1.96388e-211
-1.09669e-211
-6.10733e-212
-3.39411e-212
-1.88386e-212
-1.04519e-212
-5.80176e-213
-3.22537e-213
-1.79769e-213
-1.0057e-213
-5.65423e-214
-3.19907e-214
-1.82417e-214
-1.05009e-214
-6.11467e-215
-3.61058e-215
-2.16931e-215
-1.33311e-215
-8.45133e-216
-5.60621e-216
-3.97763e-216
-3.10337e-216
-2.72411e-216
-2.69667e-216
-2.94335e-216
-3.42044e-216
-4.09625e-216
-4.93348e-216
-5.87366e-216
-6.82403e-216
-7.64942e-216
-8.17407e-216
-9.38379e-203
-8.73928e-203
-7.781e-203
-6.66415e-203
-5.52174e-203
-4.44707e-203
-3.49455e-203
-2.68764e-203
-2.02824e-203
-1.50504e-203
-1.10009e-203
-7.93266e-204
-5.65038e-204
-3.98014e-204
-2.77535e-204
-1.91744e-204
-1.31359e-204
-8.92983e-205
-6.02765e-205
-4.04221e-205
-2.69442e-205
-1.78593e-205
-1.17751e-205
-7.72454e-206
-5.04279e-206
-3.27646e-206
-2.1188e-206
-1.36368e-206
-8.73425e-207
-5.56617e-207
-3.5286e-207
-2.22453e-207
-1.39415e-207
-8.6825e-208
-5.37093e-208
-3.29846e-208
-2.01e-208
-1.21464e-208
-7.27343e-209
-4.31118e-209
-2.52409e-209
-1.46964e-209
-8.51065e-210
-4.90261e-210
-2.80998e-210
-1.60294e-210
-9.10371e-211
-5.14986e-211
-2.90309e-211
-1.63178e-211
-9.15107e-212
-5.1239e-212
-2.86671e-212
-1.60393e-212
-8.98252e-213
-5.04016e-213
-2.83646e-213
-1.6028e-213
-9.10499e-214
-5.20644e-214
-3.00116e-214
-1.74674e-214
-1.02844e-214
-6.14012e-215
-3.72948e-215
-2.31619e-215
-1.48299e-215
-9.92427e-216
-7.09e-216
-5.55431e-216
-4.87963e-216
-4.82185e-216
-5.24651e-216
-6.076e-216
-7.25227e-216
-8.70698e-216
-1.03355e-215
-1.19756e-215
-1.33948e-215
-1.42948e-215
-1.63836e-202
-1.527e-202
-1.36141e-202
-1.16783e-202
-9.69083e-203
-7.81417e-203
-6.14501e-203
-4.72679e-203
-3.5651e-203
-2.64195e-203
-1.92697e-203
-1.38538e-203
-9.83018e-204
-6.89214e-204
-4.77959e-204
-3.28152e-204
-2.23241e-204
-1.506e-204
-1.00816e-204
-6.70134e-205
-4.42555e-205
-2.90509e-205
-1.89635e-205
-1.23139e-205
-7.95635e-206
-5.11633e-206
-3.27485e-206
-2.0866e-206
-1.32343e-206
-8.35507e-207
-5.2496e-207
-3.28204e-207
-2.04123e-207
-1.26251e-207
-7.76272e-208
-4.74298e-208
-2.87837e-208
-1.73408e-208
-1.03641e-208
-6.13915e-209
-3.59743e-209
-2.09782e-209
-1.21751e-209
-7.03342e-210
-4.04519e-210
-2.3169e-210
-1.32195e-210
-7.51689e-211
-4.26171e-211
-2.4104e-211
-1.36089e-211
-7.67505e-212
-4.32705e-212
-2.44066e-212
-1.37851e-212
-7.80384e-213
-4.43243e-213
-2.52859e-213
-1.45052e-213
-8.37761e-214
-4.87834e-214
-2.86847e-214
-1.70626e-214
-1.02909e-214
-6.31329e-215
-3.9589e-215
-2.55805e-215
-1.72618e-215
-1.24185e-215
-9.77758e-216
-8.612e-216
-8.51282e-216
-9.25198e-216
-1.06949e-215
-1.2738e-215
-1.52587e-215
-1.80721e-215
-2.08959e-215
-2.33319e-215
-2.48735e-215
-2.85212e-202
-2.65994e-202
-2.37415e-202
-2.0392e-202
-1.69425e-202
-1.36751e-202
-1.07605e-202
-8.27787e-203
-6.24029e-203
-4.61898e-203
-3.36257e-203
-2.41108e-203
-1.70498e-203
-1.1904e-203
-8.21458e-204
-5.60797e-204
-3.79086e-204
-2.53941e-204
-1.68702e-204
-1.11223e-204
-7.28163e-205
-4.73657e-205
-3.06278e-205
-1.96955e-205
-1.26002e-205
-8.02181e-206
-5.08337e-206
-3.20689e-206
-2.01425e-206
-1.25965e-206
-7.84304e-207
-4.86153e-207
-2.99949e-207
-1.84168e-207
-1.12501e-207
-6.83492e-208
-4.12837e-208
-2.47798e-208
-1.47722e-208
-8.73867e-209
-5.12146e-209
-2.98912e-209
-1.7375e-209
-1.00598e-209
-5.80253e-210
-3.33514e-210
-1.91079e-210
-1.09165e-210
-6.22183e-211
-3.53951e-211
-2.01102e-211
-1.14188e-211
-6.48438e-212
-3.68556e-212
-2.09841e-212
-1.19791e-212
-6.86314e-213
-3.9504e-213
-2.28697e-213
-1.33323e-213
-7.83692e-214
-4.65192e-214
-2.79333e-214
-1.70051e-214
-1.05281e-214
-6.66071e-215
-4.3406e-215
-2.95256e-215
-2.13956e-215
-1.69473e-215
-1.49919e-215
-1.48557e-215
-1.61592e-215
-1.86744e-215
-2.22208e-215
-2.65819e-215
-3.14341e-215
-3.62893e-215
-4.0466e-215
-4.31046e-215
-4.95323e-202
-4.62186e-202
-4.12907e-202
-3.5503e-202
-2.95273e-202
-2.38524e-202
-1.87779e-202
-1.44463e-202
-1.08854e-202
-8.0488e-203
-5.84963e-203
-4.18456e-203
-2.95014e-203
-2.0521e-203
-1.40984e-203
-9.57587e-204
-6.43592e-204
-4.28387e-204
-2.82614e-204
-1.84928e-204
-1.20103e-204
-7.74669e-205
-4.96509e-205
-3.16376e-205
-2.00507e-205
-1.26435e-205
-7.93513e-206
-4.95786e-206
-3.0844e-206
-1.9109e-206
-1.17903e-206
-7.24494e-207
-4.43346e-207
-2.70147e-207
-1.63882e-207
-9.89547e-208
-5.94557e-208
-3.55341e-208
-2.11149e-208
-1.24652e-208
-7.30091e-209
-4.2616e-209
-2.4792e-209
-1.43761e-209
-8.31059e-210
-4.79047e-210
-2.75426e-210
-1.58003e-210
-9.04776e-211
-5.17422e-211
-2.95678e-211
-1.6894e-211
-9.65794e-212
-5.52839e-212
-3.1712e-212
-1.82447e-212
-1.05375e-212
-6.11591e-213
-3.5708e-213
-2.09968e-213
-1.245e-213
-7.45483e-214
-4.51531e-214
-2.77239e-214
-1.73086e-214
-1.10404e-214
-7.25236e-215
-4.97181e-215
-3.63019e-215
-2.89597e-215
-2.57753e-215
-2.56572e-215
-2.79861e-215
-3.2383e-215
-3.85397e-215
-4.60799e-215
-5.44413e-215
-6.27834e-215
-6.99414e-215
-7.44561e-215
-8.5855e-202
-8.01451e-202
-7.16536e-202
-6.16636e-202
-5.13274e-202
-4.14904e-202
-3.26763e-202
-2.51394e-202
-1.89347e-202
-1.39877e-202
-1.01509e-202
-7.24654e-203
-5.09523e-203
-3.53256e-203
-2.41746e-203
-1.63453e-203
-1.09292e-203
-7.23306e-204
-4.7418e-204
-3.08167e-204
-1.98682e-204
-1.27159e-204
-8.08372e-205
-5.10729e-205
-3.20846e-205
-2.00503e-205
-1.24689e-205
-7.7189e-206
-4.75799e-206
-2.92095e-206
-1.78618e-206
-1.08811e-206
-6.60364e-207
-3.99257e-207
-2.40464e-207
-1.44252e-207
-8.61752e-208
-5.12535e-208
-3.03378e-208
-1.78608e-208
-1.04462e-208
-6.09332e-209
-3.54494e-209
-2.05715e-209
-1.19094e-209
-6.87962e-210
-3.96648e-210
-2.28325e-210
-1.31273e-210
-7.54168e-211
-4.33172e-211
-2.48888e-211
-1.43146e-211
-8.24695e-212
-4.76295e-212
-2.75983e-212
-1.60582e-212
-9.39134e-213
-5.52605e-213
-3.27517e-213
-1.95754e-213
-1.18151e-213
-7.21308e-214
-4.46354e-214
-2.80817e-214
-1.80482e-214
-1.19456e-214
-8.25259e-215
-6.07421e-215
-4.88584e-215
-4.38295e-215
-4.39144e-215
-4.81204e-215
-5.58302e-215
-6.65259e-215
-7.95608e-215
-9.39651e-215
-1.08295e-214
-1.20562e-214
-1.28288e-214
-1.48577e-201
-1.38744e-201
-1.2412e-201
-1.06891e-201
-8.90343e-202
-7.20096e-202
-5.67298e-202
-4.36447e-202
-3.28604e-202
-2.42554e-202
-1.75795e-202
-1.25272e-202
-8.78761e-203
-6.07493e-203
-4.14297e-203
-2.78999e-203
-1.857e-203
-1.22271e-203
-7.97066e-204
-5.14836e-204
-3.29737e-204
-2.09552e-204
-1.32226e-204
-8.28903e-205
-5.16515e-205
-3.20087e-205
-1.97356e-205
-1.21115e-205
-7.40041e-206
-4.50353e-206
-2.73019e-206
-1.64914e-206
-9.92672e-207
-5.95489e-207
-3.5602e-207
-2.12128e-207
-1.25952e-207
-7.45129e-208
-4.39098e-208
-2.57627e-208
-1.50348e-208
-8.75675e-209
-5.09049e-209
-2.95384e-209
-1.71115e-209
-9.89786e-210
-5.71808e-210
-3.30023e-210
-1.90361e-210
-1.09783e-210
-6.33318e-211
-3.65659e-211
-2.11427e-211
-1.22507e-211
-7.1185e-212
-4.15125e-212
-2.4316e-212
-1.43191e-212
-8.48535e-213
-5.06529e-213
-3.04945e-213
-1.85392e-213
-1.13998e-213
-7.1047e-214
-4.5014e-214
-2.91348e-214
-1.94231e-214
-1.35222e-214
-1.00384e-214
-8.15117e-215
-7.38265e-215
-7.45934e-215
-8.22474e-215
-9.58014e-215
-1.14398e-214
-1.36937e-214
-1.61752e-214
-1.86371e-214
-2.074e-214
-2.20624e-214
-2.56789e-201
-2.39861e-201
-2.14687e-201
-1.84994e-201
-1.54175e-201
-1.24749e-201
-9.83019e-202
-7.56267e-202
-5.69206e-202
-4.19854e-202
-3.03956e-202
-2.16261e-202
-1.51396e-202
-1.04397e-202
-7.09819e-203
-4.7633e-203
-3.1577e-203
-2.06975e-203
-1.3425e-203
-8.62405e-204
-5.49085e-204
-3.46744e-204
-2.17326e-204
-1.35275e-204
-8.3672e-205
-5.1455e-205
-3.14754e-205
-1.91604e-205
-1.16118e-205
-7.00819e-206
-4.2137e-206
-2.52456e-206
-1.50754e-206
-8.97403e-207
-5.32592e-207
-3.15153e-207
-1.8594e-207
-1.09378e-207
-6.414e-208
-3.74817e-208
-2.18103e-208
-1.26745e-208
-7.35633e-209
-4.26483e-209
-2.47011e-209
-1.42948e-209
-8.26773e-210
-4.78036e-210
-2.76403e-210
-1.59883e-210
-9.25616e-211
-5.36597e-211
-3.11671e-211
-1.81486e-211
-1.06018e-211
-6.2175e-212
-3.6635e-212
-2.17063e-212
-1.29443e-212
-7.77685e-213
-4.71238e-213
-2.88362e-213
-1.78471e-213
-1.11948e-213
-7.13862e-214
-4.65077e-214
-3.12209e-214
-2.1906e-214
-1.64125e-214
-1.347e-214
-1.23379e-214
-1.25926e-214
-1.39912e-214
-1.63786e-214
-1.96145e-214
-2.35128e-214
-2.77891e-214
-3.20199e-214
-3.56262e-214
-3.78911e-214
-4.43343e-201
-4.14214e-201
-3.70891e-201
-3.19743e-201
-2.66595e-201
-2.15788e-201
-1.70073e-201
-1.30839e-201
-9.84464e-202
-7.25708e-202
-5.24874e-202
-3.72938e-202
-2.60621e-202
-1.79323e-202
-1.21607e-202
-8.1355e-203
-5.37426e-203
-3.50867e-203
-2.26583e-203
-1.44852e-203
-9.17431e-204
-5.76093e-204
-3.58908e-204
-2.21986e-204
-1.36391e-204
-8.32932e-205
-5.0585e-205
-3.05656e-205
-1.83839e-205
-1.10106e-205
-6.56921e-206
-3.90561e-206
-2.31453e-206
-1.36755e-206
-8.05793e-207
-4.73554e-207
-2.77608e-207
-1.62342e-207
-9.46999e-208
-5.50931e-208
-3.19458e-208
-1.85101e-208
-1.07185e-208
-6.20365e-209
-3.58935e-209
-2.07644e-209
-1.2013e-209
-6.95229e-210
-4.02605e-210
-2.33379e-210
-1.35474e-210
-7.87881e-211
-4.59308e-211
-2.68554e-211
-1.57585e-211
-9.28641e-212
-5.49981e-212
-3.27611e-212
-1.96451e-212
-1.18697e-212
-7.23399e-213
-4.45239e-213
-2.77167e-213
-1.74871e-213
-1.12168e-213
-7.35252e-214
-4.96916e-214
-3.51449e-214
-2.65929e-214
-2.2087e-214
-2.04914e-214
-2.1158e-214
-2.37162e-214
-2.79254e-214
-3.35589e-214
-4.03039e-214
-4.76749e-214
-5.49488e-214
-6.11368e-214
-6.50181e-214
-7.64763e-201
-7.14651e-201
-6.40116e-201
-5.5205e-201
-4.60453e-201
-3.72806e-201
-2.9387e-201
-2.26068e-201
-1.70054e-201
-1.25291e-201
-9.05425e-202
-6.42586e-202
-4.48382e-202
-3.07936e-202
-2.08352e-202
-1.39019e-202
-9.15549e-203
-5.95672e-203
-3.83197e-203
-2.43939e-203
-1.5379e-203
-9.60918e-204
-5.95477e-204
-3.6623e-204
-2.2368e-204
-1.3575e-204
-8.19093e-205
-4.91622e-205
-2.93659e-205
-1.74648e-205
-1.0346e-205
-6.10709e-206
-3.59339e-206
-2.10823e-206
-1.23366e-206
-7.20185e-207
-4.19513e-207
-2.43872e-207
-1.41488e-207
-8.19189e-208
-4.7312e-208
-2.7318e-208
-1.57722e-208
-9.10692e-209
-5.25976e-209
-3.03921e-209
-1.75733e-209
-1.01707e-209
-5.89371e-210
-3.42065e-210
-1.9892e-210
-1.15954e-210
-6.77859e-211
-3.97621e-211
-2.34167e-211
-1.38543e-211
-8.2403e-212
-4.93085e-212
-2.97081e-212
-1.8038e-212
-1.10484e-212
-6.83471e-213
-4.27658e-213
-2.71223e-213
-1.74903e-213
-1.15307e-213
-7.84443e-214
-5.59376e-214
-4.27785e-214
-3.60003e-214
-3.38776e-214
-3.54308e-214
-4.01024e-214
-4.75252e-214
-5.73348e-214
-6.90075e-214
-8.1717e-214
-9.42279e-214
-1.04852e-213
-1.11507e-213
-1.31828e-200
-1.23209e-200
-1.10388e-200
-9.523e-201
-7.94522e-201
-6.43428e-201
-5.07248e-201
-3.902e-201
-2.93451e-201
-2.16107e-201
-1.56061e-201
-1.10648e-201
-7.71084e-202
-5.28709e-202
-3.57036e-202
-2.37682e-202
-1.56122e-202
-1.01274e-202
-6.49329e-203
-4.11839e-203
-2.586e-203
-1.60879e-203
-9.92316e-204
-6.07266e-204
-3.6895e-204
-2.22679e-204
-1.33587e-204
-7.97002e-205
-4.73133e-205
-2.79605e-205
-1.64567e-205
-9.65069e-206