/*--------------------------------*- C++ -*----------------------------------*\
  =========                 |
  \\      /  F ield         | OpenFOAM: The Open Source CFD Toolbox
   \\    /   O peration     | Website:  https://openfoam.org
    \\  /    A nd           | Version:  11
     \\/     M anipulation  |
\*---------------------------------------------------------------------------*/
FoamFile
{
    format      ascii;
    class       volScalarField;
    location    "100";
    object      C;
}
// * * * * * * * * * * * * * * * * * * * * * * * * * * * * * * * * * * * * * //

dimensions      [0 0 0 1 0 0 0];

internalField   nonuniform List<scalar> 
427520
(
1.33825e-312
-1.69461e-311
-5.75927e-312
-7.49597e-312
-5.51646e-312
-4.67179e-312
-7.52753e-312
-9.27037e-312
-6.83956e-312
8.25889e-314
-3.50516e-313
-2.4431e-311
-1.65429e-311
7.79871e-312
1.333e-311
3.75559e-311
3.45538e-311
2.84457e-311
-7.08254e-312
2.04417e-311
1.34454e-311
-2.20667e-311
-2.1171e-311
-8.4962e-312
1.06399e-311
-8.76711e-312
-1.39574e-311
-2.29641e-311
-4.01954e-311
-3.72028e-311
-8.84758e-312
1.63444e-311
2.71451e-313
1.75727e-311
4.05841e-311
4.41481e-311
1.36165e-311
2.4165e-312
-1.16323e-311
2.11045e-311
-3.21981e-312
-2.08332e-311
-2.56471e-311
-5.86038e-311
-6.3304e-311
-5.92057e-311
-8.8374e-311
-9.05204e-311
-7.80716e-311
-6.78621e-311
-5.58211e-311
-2.61307e-311
1.2195e-311
-6.34622e-312
2.83096e-312
2.07095e-311
7.77713e-312
2.904e-311
4.41905e-311
3.63078e-311
1.88893e-311
2.87162e-313
1.89673e-311
1.82024e-312
6.31769e-312
3.22845e-311
1.72665e-311
4.1022e-311
1.22509e-311
1.01584e-311
1.29153e-311
2.6877e-311
6.06047e-311
4.62916e-311
4.60531e-312
1.84931e-312
-2.90084e-312
7.37326e-312
3.27246e-312
2.87676e-311
1.03064e-310
4.83844e-311
3.86995e-311
3.76046e-311
2.81244e-311
2.03118e-311
-1.30345e-311
8.78477e-312
1.27105e-311
-1.04485e-311
-1.52455e-311
-4.92254e-311
-4.32556e-311
-8.44699e-311
-3.19622e-311
-2.71251e-311
-2.34533e-311
-2.94245e-311
-4.17145e-313
6.2696e-311
5.23218e-311
4.03665e-311
4.03763e-311
5.92713e-311
4.281e-311
2.89774e-311
3.79125e-313
-3.06374e-311
-2.04018e-311
-2.08794e-311
-1.60343e-311
-2.74955e-311
1.37795e-312
3.01819e-311
4.36404e-311
3.0388e-311
-1.06196e-311
-9.55762e-312
-9.93616e-312
1.22272e-311
3.146e-311
4.90443e-311
3.49372e-311
3.09768e-312
-3.64447e-311
-7.8756e-311
-3.20085e-311
-3.52231e-311
-6.06946e-311
-3.69191e-311
-1.34705e-311
1.64922e-311
4.87449e-312
1.64351e-311
2.13004e-311
3.7523e-311
3.09034e-311
3.31141e-311
3.1645e-311
3.44999e-311
6.42575e-311
7.83147e-311
3.0956e-311
3.1716e-311
-8.28504e-312
2.70015e-311
1.13403e-311
2.16382e-311
4.10274e-311
2.29739e-311
6.84498e-312
9.97402e-312
9.06666e-312
1.05086e-311
-2.39601e-311
-5.98564e-311
-4.38142e-311
-1.92138e-311
3.2687e-311
6.29802e-311
1.00125e-311
-1.76834e-311
-1.09061e-311
1.0624e-311
-1.84827e-311
3.76555e-311
2.7338e-311
-1.83791e-312
-1.28782e-311
-1.46526e-311
-4.95593e-311
-6.47905e-311
-9.46812e-311
-8.82537e-311
-8.7266e-311
-1.27837e-310
-1.0953e-310
-7.29552e-311
-3.50892e-311
6.56771e-312
7.60306e-312
2.11798e-311
6.34261e-311
8.52295e-311
7.30409e-311
4.19256e-311
4.73996e-311
1.08916e-311
3.2645e-311
-2.23817e-311
-4.08576e-311
-6.06799e-311
-5.17499e-312
4.0472e-311
5.36236e-311
3.78153e-311
-4.86607e-312
9.41271e-312
-9.98432e-312
3.9379e-311
3.4419e-311
4.69441e-311
1.37294e-311
-3.68771e-312
5.47874e-311
2.70326e-311
1.31395e-311
-3.47525e-311
-5.66214e-311
-3.33868e-311
-3.39998e-311
-4.5625e-311
-4.43338e-311
-3.33879e-311
-1.16664e-311
1.44285e-311
2.9033e-311
4.28952e-311
5.34354e-311
8.79648e-311
4.23529e-311
5.40377e-311
2.17945e-311
5.55971e-311
4.54562e-311
6.2471e-311
1.44561e-311
2.1929e-311
5.23421e-311
3.19703e-311
2.38473e-311
1.97692e-311
1.49629e-311
1.04549e-312
-1.06377e-311
-4.13484e-311
2.47161e-311
3.39359e-311
4.82756e-311
6.47452e-311
-1.03964e-310
-1.84308e-310
-1.4019e-310
-7.12855e-311
-1.12872e-310
-3.75492e-311
-2.43538e-311
-2.21986e-311
-3.72425e-311
-6.57212e-311
-8.25638e-311
-8.47897e-311
-8.37843e-311
-1.39584e-310
-7.65216e-311
-1.30186e-310
-1.30567e-310
-1.49909e-310
-1.33516e-310
-1.12214e-310
-7.75992e-311
-3.81882e-311
-1.77022e-311
4.97654e-312
2.41909e-311
-4.54448e-312
2.00504e-312
-5.98927e-312
3.80009e-311
2.54052e-311
-1.67358e-311
-5.2461e-311
-2.46126e-311
3.82146e-311
4.72747e-311
7.12646e-311
3.50814e-311
6.89626e-311
7.65847e-311
7.57742e-311
3.84246e-311
-4.97578e-312
2.34381e-311
1.99142e-311
5.35282e-311
4.08059e-311
8.58419e-312
-2.93207e-311
3.24429e-312
-6.06786e-311
-5.45034e-311
-2.14342e-311
2.02725e-311
2.47965e-311
2.44515e-311
1.60456e-311
1.66698e-311
-9.66914e-312
1.67443e-311
2.69511e-311
-2.58305e-312
2.68421e-311
6.00623e-311
2.77541e-311
4.03404e-311
4.85819e-311
3.5535e-311
3.83335e-311
8.64253e-311
4.39083e-311
2.63429e-311
6.29324e-311
4.03856e-311
4.25174e-311
5.25393e-311
5.71883e-311
3.38971e-311
1.68506e-311
2.75786e-311
3.31115e-311
-3.23339e-310
-2.84939e-310
-2.98204e-310
-2.17167e-310
-1.99197e-310
-1.16602e-310
-8.42511e-311
-6.64228e-311
-7.18492e-312
-1.4368e-311
-1.66247e-311
-1.36917e-311
-5.73348e-311
-9.74347e-311
-7.67581e-311
-7.40793e-311
-5.43725e-311
-1.28544e-310
-1.98165e-310
-1.81062e-310
-1.56273e-310
-8.71711e-311
-5.17542e-311
-4.03749e-311
-4.8799e-311
-4.37376e-311
-3.04473e-311
5.5748e-312
7.43411e-311
1.5198e-311
-4.6863e-311
-7.04645e-311
-3.91036e-311
3.23164e-311
7.61006e-311
8.70576e-311
5.62516e-311
1.31808e-310
1.30927e-310
1.42486e-310
1.27814e-310
5.26135e-311
4.73945e-311
2.30997e-311
5.53433e-311
4.73893e-311
6.73986e-311
6.33729e-311
6.95993e-311
3.38596e-311
1.06204e-311
5.40695e-312
2.12832e-311
1.48122e-311
3.91852e-311
1.65028e-311
-2.93095e-311
-2.7669e-311
-7.44106e-311
-4.9228e-311
3.89353e-312
4.79851e-311
3.94544e-311
5.10401e-311
1.70731e-311
6.75755e-311
7.31211e-311
5.38055e-311
2.93574e-311
1.27688e-311
6.04782e-311
7.5704e-311
9.53541e-311
9.32385e-311
3.1045e-311
5.88853e-311
2.8606e-311
-2.74511e-311
-9.74045e-312
-2.87688e-311
-1.71109e-310
-1.73466e-310
-2.2544e-310
-2.19423e-310
-2.22788e-310
-1.69074e-310
-1.03075e-310
-5.35968e-311
-3.89234e-311
-3.2315e-311
-2.09898e-311
-2.71087e-311
-4.9602e-311
-4.68439e-311
-4.40816e-311
-5.82406e-311
-3.9299e-311
-1.13728e-310
-2.34978e-310
-2.14831e-310
-1.70529e-310
-6.822e-311
-7.26459e-311
-9.84887e-311
-9.23756e-311
-9.2827e-311
-6.02845e-311
-2.7257e-311
-3.541e-311
-4.15575e-311
-4.15123e-311
-1.13228e-310
-9.5975e-311
-1.62847e-311
-3.66918e-312
-2.43274e-311
-7.94506e-312
1.10411e-310
1.34338e-310
1.57325e-310
1.13815e-310
2.3378e-311
5.75917e-311
4.82529e-311
5.47841e-311
1.14108e-310
1.28164e-310
1.43853e-310
1.05674e-310
1.01327e-310
6.18527e-311
4.16125e-311
1.64259e-312
1.54174e-311
-1.74434e-311
-1.77848e-311
-2.66521e-312
-2.39626e-313
-3.79058e-311
-3.61233e-311
4.66493e-311
7.50637e-311
7.0669e-311
4.59103e-311
1.30432e-311
4.84994e-311
7.26989e-311
5.20063e-311
5.20594e-311
2.91554e-311
9.23409e-311
1.31267e-310
1.63387e-310
1.747e-310
1.48493e-310
1.69672e-310
1.10122e-310
7.64326e-311
9.89367e-311
3.32223e-311
-4.03243e-311
-9.61705e-311
-1.35062e-310
-1.77708e-310
-2.24512e-310
-1.82606e-310
-9.41393e-311
-7.66286e-311
-7.6806e-311
7.36559e-312
-1.26915e-311
-2.48417e-311
-4.61802e-311
-7.36407e-312
-3.1536e-311
-5.32372e-311
-1.9825e-311
-5.84747e-311
-1.69048e-310
-1.73323e-310
-1.8276e-310
-1.37781e-310
-1.2638e-310
-9.82043e-311
-2.99276e-311
-6.96524e-311
-5.56648e-311
-2.48924e-311
-2.85577e-311
1.34827e-312
-2.48046e-311
-5.83142e-311
-8.3211e-311
-7.73966e-311
-9.94675e-311
-8.17761e-311
-7.80651e-311
6.73823e-311
9.89024e-311
1.31765e-310
1.55714e-310
1.0885e-310
1.12954e-310
5.137e-311
5.30263e-311
3.39869e-311
4.09762e-311
6.39288e-311
9.8983e-311
4.45115e-311
2.91107e-311
6.64233e-311
5.6331e-311
5.1741e-311
4.31125e-311
7.71217e-311
8.66272e-311
8.55655e-311
4.11911e-311
6.23511e-311
6.51239e-311
6.6849e-311
4.51714e-311
3.62466e-311
2.85014e-311
3.1784e-311
5.90143e-311
5.94209e-311
7.72122e-311
9.5034e-311
1.14271e-310
2.09623e-310
2.10491e-310
1.71769e-310
1.91388e-310
1.85348e-310
1.19171e-310
4.24641e-311
-2.32287e-311
-1.50035e-311
-1.08718e-310
-1.70811e-310
-2.79956e-310
-2.66641e-310
-2.6344e-310
-1.85291e-310
-1.58808e-310
-1.19267e-310
-8.13095e-311
-2.79414e-311
-9.4038e-312
-1.57861e-311
-3.32179e-311
-2.08632e-311
-1.99084e-313
2.47066e-311
3.56843e-311
-6.84365e-312
-5.12802e-311
-1.36787e-310
-1.93747e-310
-1.74483e-310
-1.08092e-310
-7.51513e-311
-2.89279e-311
-8.07733e-311
-6.75538e-311
-2.03757e-311
-3.89975e-312
-4.13666e-312
-4.2825e-311
-2.68294e-311
-5.67305e-311
-7.64287e-311
-9.19491e-311
-7.97213e-311
-9.62023e-311
-1.68792e-311
2.53886e-311
6.39987e-311
1.16118e-310
7.82343e-311
3.95936e-311
4.88267e-312
-2.62679e-311
-1.56384e-311
-2.06871e-311
6.62188e-311
6.70064e-311
-2.84333e-312
-4.15499e-313
5.12164e-311
8.04529e-311
1.03959e-310
9.51754e-311
1.46111e-310
1.79487e-310
1.91838e-310
1.30621e-310
1.2412e-310
7.9181e-311
3.98018e-311
-1.76824e-311
-3.95789e-311
-1.88884e-311
-9.13482e-312
-2.9905e-311
7.47443e-312
4.64241e-311
4.11327e-311
5.05537e-311
9.2435e-311
9.04197e-311
9.82854e-311
5.50456e-311
1.64435e-311
5.91084e-311
5.47039e-311
1.00404e-310
1.6956e-310
-2.4579e-310
-1.76651e-310
-1.79076e-310
-2.51071e-310
-2.64236e-310
-1.63361e-310
-1.60929e-310
-1.59352e-310
-7.03756e-311
-1.37267e-311
-2.15574e-311
-4.93656e-311
-5.74968e-311
-3.42174e-311
-3.93143e-311
-1.76038e-311
-2.04536e-311
-4.56174e-311
-1.81472e-311
-9.27059e-311
-1.46205e-310
-1.65165e-310
-1.40153e-310
-5.6044e-311
-1.72146e-312
-3.18701e-311
-6.17988e-311
-8.40013e-311
-6.05141e-311
-4.17039e-311
-1.23997e-311
-1.87192e-311
-7.46818e-311
-7.71471e-311
-9.49572e-311
-1.29659e-310
-1.64424e-310
-5.82622e-311
-1.41154e-311
8.22496e-311
5.90975e-311
-1.98445e-311
-8.29681e-311
-5.73953e-311
-9.79729e-311
-5.05822e-311
-7.4487e-311
-3.30927e-311
7.86082e-311
1.13911e-310
4.9913e-311
1.76514e-311
4.81753e-311
7.69782e-311
8.9534e-311
1.62243e-310
1.69493e-310
1.96827e-310
1.70869e-310
9.67325e-311
5.34542e-311
-3.71688e-312
-1.03761e-310
-1.20772e-310
-1.03844e-310
-7.43048e-311
-4.13708e-311
-2.35647e-311
-9.28285e-312
-3.99154e-311
-2.12244e-311
3.3256e-311
6.0514e-311
4.16764e-311
1.94235e-311
3.22526e-311
2.47743e-311
5.3312e-311
1.15788e-310
2.75954e-310
-1.52211e-310
-5.81773e-311
-2.44629e-311
-7.52899e-311
-1.45432e-310
-1.40996e-310
-1.52815e-310
-1.21655e-310
-1.41515e-310
-6.3433e-311
-1.14589e-311
-3.87461e-311
-2.13484e-311
-4.4437e-311
-6.05369e-311
-2.25289e-311
1.46742e-311
-2.93836e-311
1.36721e-311
-3.85872e-311
-1.03683e-310
-1.02983e-310
-1.25106e-310
-7.99225e-311
-7.04173e-311
-1.10381e-310
-3.9357e-311
-4.04765e-311
-2.57189e-311
1.18617e-312
1.30372e-311
1.67309e-311
2.27111e-311
-5.82456e-311
-1.14445e-310
-1.05622e-310
-1.11671e-310
-9.7226e-311
-3.3549e-311
6.77336e-311
6.3383e-311
-1.34788e-311
-3.10882e-311
-2.81289e-311
-6.9238e-311
-4.90703e-311
-1.5356e-310
-1.74264e-310
-7.73237e-311
8.30979e-311
9.99603e-311
7.79089e-311
7.27153e-311
8.47016e-311
1.02979e-310
1.27634e-310
8.23927e-311
1.34459e-310
1.65704e-310
1.16817e-310
6.27663e-311
-1.02043e-311
-6.64175e-311
-7.16577e-311
-1.62541e-311
5.0423e-311
6.82516e-311
4.93927e-311
3.64034e-311
4.50579e-311
5.64437e-311
1.20548e-310
1.60715e-310
1.29138e-310
1.81426e-310
2.18703e-310
9.37078e-311
9.10638e-311
1.38112e-310
1.44916e-310
1.56775e-310
2.29427e-310
2.56963e-310
2.64381e-310
1.95626e-310
7.35785e-311
1.48523e-311
-1.97411e-311
-8.10373e-311
-7.49274e-311
-2.52537e-311
1.22884e-311
-7.71858e-311
-8.94296e-311
-2.4084e-311
-5.50575e-312
-7.60468e-312
-1.06659e-311
-2.49405e-311
-2.05632e-311
-5.12265e-311
-1.03639e-310
-1.45332e-310
-1.49876e-310
-1.49554e-310
-1.26643e-310
-5.17563e-311
-5.47266e-311
-6.95098e-311
-2.42961e-311
3.89209e-311
5.20319e-311
2.9185e-311
-3.40031e-311
-6.81807e-311
-1.3919e-310
-1.40169e-310
-1.13564e-310
-1.10794e-311
2.83552e-311
4.00272e-311
5.39113e-311
4.18044e-311
-1.90601e-311
-6.96321e-311
-8.6117e-311
-8.974e-311
-9.72593e-311
-4.89946e-311
2.83024e-311
5.97771e-311
1.53008e-311
1.6894e-311
1.17408e-311
7.74204e-311
1.20264e-310
5.10197e-311
8.96842e-311
1.4248e-310
9.24063e-311
1.35929e-311
-2.01082e-311
3.36684e-312
1.1179e-310
1.5042e-310
1.43801e-310
2.1742e-310
2.09211e-310
2.16765e-310
1.32382e-310
1.26044e-310
1.74159e-310
1.64145e-310
1.34671e-310
1.84137e-310
1.7686e-310
1.51452e-310
2.07304e-310
1.73691e-310
1.56554e-310
1.328e-311
9.27722e-311
1.81602e-310
2.59023e-310
1.67476e-310
1.68923e-310
9.86055e-311
1.87523e-312
-3.6799e-311
-7.75601e-311
4.27326e-311
7.14435e-311
-1.72171e-311
-4.57853e-311
1.90178e-311
-3.63669e-311
-3.22915e-312
-1.04546e-311
4.33295e-312
-5.17935e-311
-9.26498e-311
-1.08818e-310
-1.30211e-310
-1.12265e-310
-8.54305e-311
-7.99974e-311
-5.61831e-311
-7.433e-311
-1.46464e-311
3.54336e-311
2.44769e-311
3.70228e-311
3.76276e-311
-2.73732e-312
-3.84896e-311
-1.10164e-310
-9.48855e-311
-3.6458e-311
-2.54683e-311
-4.97076e-311
5.6028e-312
2.2231e-311
2.84911e-311
8.36967e-312
-5.19083e-311
-5.97239e-311
2.25632e-311
3.14467e-311
7.00967e-311
9.21115e-311
6.03024e-311
-7.79636e-312
1.48634e-311
3.89607e-311
9.06754e-311
9.27579e-311
3.79559e-311
1.0183e-311
1.41213e-311
-9.56162e-312
-7.24659e-312
3.7842e-311
7.32126e-311
1.8657e-310
2.40967e-310
1.93843e-310
1.66583e-310
2.06943e-310
2.39901e-310
1.89886e-310
1.82695e-310
2.24684e-310
1.96107e-310
1.44036e-310
2.10765e-310
1.58913e-310
1.62893e-310
1.76125e-310
1.51305e-310
1.36332e-310
-6.05387e-311
-1.03934e-310
-4.00566e-311
-2.19842e-311
-2.1048e-311
2.92275e-311
9.17099e-312
-3.10445e-311
-5.4954e-311
-7.41468e-311
-9.2058e-312
-1.50685e-311
2.06487e-311
5.04353e-311
4.54185e-311
-3.49944e-311
-8.28742e-311
-7.54257e-311
1.4778e-312
-5.79882e-311
-9.36249e-311
-1.11728e-310
-1.38426e-310
-9.0966e-311
-9.8801e-311
-1.81802e-312
4.16181e-312
-3.14502e-311
-1.03165e-312
9.11401e-311
4.55837e-311
1.56514e-311
3.83466e-311
-3.4089e-311
-5.27919e-311
-6.92379e-311
-1.00927e-310
-8.49885e-311
-4.23888e-311
-6.79183e-311
-1.64826e-311
2.93175e-312
2.92128e-311
3.52889e-311
-8.99424e-311
-6.7246e-311
2.46491e-313
2.526e-311
6.89724e-311
8.35928e-311
3.89868e-311
-2.50301e-311
6.75733e-312
5.65601e-311
5.36923e-311
9.80529e-311
5.38922e-311
6.37286e-311
1.05953e-310
7.44576e-311
6.73586e-311
9.26135e-311
1.39401e-310
1.14532e-310
1.05979e-310
1.03702e-310
9.47441e-312
3.54921e-311
8.56527e-311
6.49558e-311
1.40286e-310
1.1477e-310
1.33533e-310
1.95547e-310
1.93595e-310
1.80078e-310
1.34732e-310
7.38277e-311
2.16256e-311
7.95847e-311
-1.02009e-310
-1.37209e-310
-8.65126e-311
-6.18374e-311
-4.08397e-311
-1.11593e-311
1.62163e-311
4.42862e-312
1.5673e-311
-4.95618e-311
-1.17808e-310
-7.33415e-311
-1.10981e-311
-8.37002e-312
-2.10362e-311
-2.29954e-311
-1.64334e-311
1.17491e-311
-2.48147e-311
-3.33689e-311
-6.91903e-311
-9.22175e-311
-1.03867e-310
-1.04133e-310
-7.99113e-311
-5.01946e-311
-3.58311e-311
-4.41387e-311
-1.6484e-311
5.42482e-311
1.004e-310
9.50833e-311
3.36755e-311
-5.84929e-312
-3.28033e-311
-8.94264e-311
-1.12396e-310
-1.51136e-310
-1.29815e-310
-1.11992e-310
-7.39919e-311
-4.92754e-312
-1.38191e-311
-6.26595e-312
-2.73528e-311
1.6955e-311
-2.34209e-311
-6.25807e-311
-4.59611e-311
3.59146e-311
9.99147e-311
8.90503e-311
1.32141e-310
1.75264e-310
7.52082e-311
7.15516e-311
5.0779e-311
1.03932e-310
9.48891e-311
5.53994e-311
6.05369e-311
2.66721e-311
1.16808e-311
-3.95722e-311
-5.80092e-311
-1.39723e-310
-1.15177e-310
-1.98117e-311
1.02106e-310
9.53925e-311
1.45928e-310
7.8892e-311
1.12352e-310
2.13593e-310
2.0779e-310
1.89096e-310
2.16027e-310
2.63903e-310
2.47955e-310
3.16964e-310
-2.74094e-310
-2.62783e-310
-2.7979e-310
-2.90392e-310
-2.07132e-310
-8.12012e-311
-3.39511e-311
1.31396e-311
1.72445e-311
3.0077e-311
-2.9509e-311
3.94766e-312
-2.09209e-311
-1.74207e-311
-5.17299e-311
-1.13567e-310
-6.05676e-311
-3.3418e-311
-3.307e-311
2.56064e-311
-7.21661e-312
-6.223e-311
-8.64815e-311
-9.20615e-311
-8.36384e-311
-6.06025e-311
-7.53258e-311
-3.97209e-311
1.58891e-311
5.55524e-311
8.21239e-311
7.36172e-311
6.37825e-311
8.3219e-311
1.89606e-311
-4.88947e-311
-9.09744e-311
-1.49326e-310
-1.70273e-310
-1.28539e-310
-1.12962e-310
-5.91743e-311
-1.30785e-310
-1.04791e-310
-7.32472e-311
2.5053e-311
-2.30089e-311
-5.48022e-311
-8.16342e-311
2.03798e-311
1.4731e-310
1.95457e-310
3.30973e-310
2.92044e-310
1.31792e-310
7.63678e-311
3.5753e-311
1.54521e-311
3.90537e-311
3.98257e-311
3.20187e-311
-2.13565e-311
-3.93442e-311
-8.30391e-311
-3.96604e-311
2.3473e-311
3.31501e-312
9.49051e-311
2.19851e-310
1.94917e-310
1.71617e-310
9.85809e-311
1.00738e-310
8.9441e-311
8.52187e-311
7.78853e-311
1.204e-310
1.96274e-310
3.20039e-310
4.23479e-310
-1.49106e-310
-1.19617e-310
-3.01361e-310
-3.70518e-310
-3.62566e-310
-2.97732e-310
-2.29603e-310
-1.60391e-310
-1.03277e-310
-2.68089e-311
-3.41893e-311
-7.07891e-311
-2.01596e-311
-5.89233e-311
-1.53784e-310
-1.77747e-310
-1.31005e-310
-1.70623e-310
-1.06184e-310
-4.56121e-311
-3.96766e-311
-9.19611e-311
-1.23068e-310
-8.86481e-311
-9.89099e-311
-9.56331e-311
-5.39101e-311
1.96649e-311
4.12884e-311
8.68795e-311
3.25868e-311
4.51637e-311
1.15651e-310
1.36679e-310
2.25295e-311
-3.42399e-311
-4.43232e-311
-9.41029e-311
-1.34184e-310
-9.15435e-311
-7.06592e-311
-3.77699e-311
-1.15847e-310
-1.25011e-310
-1.49955e-311
3.24437e-311
5.42366e-311
8.78396e-311
1.23596e-310
1.57376e-310
2.46721e-310
1.75262e-310
2.33814e-310
1.47135e-310
8.85458e-311
4.98704e-311
-2.78534e-311
-6.19581e-311
-6.86094e-311
4.15069e-312
3.25006e-311
5.78654e-311
6.20567e-311
7.19275e-311
1.32613e-310
2.11986e-310
1.40473e-310
1.61942e-310
1.14849e-310
-2.95576e-311
-1.49544e-310
-2.74878e-310
-2.11137e-310
-1.61904e-310
-5.62901e-311
8.18704e-311
1.73813e-310
1.36178e-310
2.27012e-310
2.67858e-310
5.44923e-310
4.59951e-310
3.40099e-310
9.80788e-311
-1.19251e-310
-2.53099e-310
-2.39633e-310
-2.26541e-310
-1.64888e-310
-1.02027e-310
-4.81258e-311
-7.61693e-312
-2.88675e-311
-8.47843e-311
-1.26502e-310
-1.59166e-310
-1.62461e-310
-1.19573e-310
-7.90801e-311
-5.004e-312
3.06858e-311
7.29491e-312
-1.05326e-310
-6.71674e-311
-4.31131e-311
-3.62449e-311
-7.06427e-311
-2.03845e-311
-1.44237e-311
6.24731e-311
8.63448e-311
9.19295e-311
1.28695e-310
8.2568e-311
5.71911e-311
1.76365e-311
-2.22096e-311
-4.31669e-311
-2.02761e-311
-3.60877e-311
-1.29291e-311
4.85898e-311
-1.13434e-311
6.07946e-312
7.46904e-311
7.00958e-311
9.95978e-311
1.2443e-310
1.67267e-310
2.89057e-310
2.5907e-310
1.21532e-310
3.55503e-311
3.32221e-311
2.45519e-311
-2.23088e-311
-3.72187e-311
-1.15247e-310
-1.36784e-310
-1.86597e-310
-1.5604e-310
-3.04752e-311
2.19074e-311
8.56315e-311
5.87596e-311
6.42378e-311
5.83575e-311
4.05789e-311
-1.01938e-310
-2.65066e-310
-4.18332e-310
-3.7518e-310
-2.3956e-310
-7.52938e-311
9.77328e-311
3.38925e-310
4.16049e-310
3.47668e-310
3.13705e-310
2.8565e-310
8.62649e-310
8.21977e-310
6.92544e-310
5.04367e-310
2.97578e-310
1.89098e-310
1.56044e-312
-9.56855e-311
-1.25186e-310
-6.85105e-311
-1.08972e-311
-5.0732e-312
-1.8743e-311
-5.79155e-311
-8.88919e-311
-9.39217e-311
-8.9976e-311
-6.93518e-311
-2.50819e-311
-3.8012e-311
-9.98128e-312
-1.08196e-311
-1.3246e-310
-1.57375e-310
-8.16963e-311
-4.52924e-311
-2.72959e-311
-3.84324e-311
-3.12008e-311
1.40347e-311
7.92813e-311
1.17449e-310
9.03492e-311
7.37972e-311
6.51352e-311
4.93197e-311
2.15599e-311
4.82966e-312
6.04132e-312
-7.59658e-311
-6.91135e-311
2.80685e-312
4.80295e-311
1.17569e-310
1.20769e-310
1.13982e-310
2.01201e-312
-1.10504e-311
-2.43451e-312
5.05998e-311
9.8468e-311
1.33062e-310
-1.19987e-312
2.96875e-311
7.83169e-311
3.89032e-311
9.6887e-311
1.10425e-310
5.75931e-311
2.59603e-311
3.61483e-311
2.66871e-311
1.8701e-312
7.74173e-311
7.16887e-311
6.08844e-312
-1.29378e-310
-2.19749e-310
-2.29418e-310
-1.97152e-310
-1.53588e-310
-7.18073e-311
8.86466e-311
2.39399e-310
3.05869e-310
4.4806e-310
4.76724e-310
3.66086e-310
2.07064e-310
1.42931e-310
6.15864e-310
6.12188e-310
6.53489e-310
5.97691e-310
4.42045e-310
2.91685e-310
1.09525e-310
6.80713e-311
6.15326e-311
6.04304e-311
-1.2609e-311
-5.00844e-311
-6.3823e-311
-1.15953e-310
-1.3881e-310
-9.74534e-311
-3.02158e-311
-1.2693e-310
-1.70982e-310
-2.09042e-310
-1.70244e-310
-1.49765e-310
-1.9663e-310
-2.27184e-310
-1.77476e-310
-1.6381e-310
-7.38868e-311
-6.84761e-311
-2.64063e-311
7.68582e-311
6.0219e-311
4.2332e-311
5.88856e-311
5.26085e-311
6.04838e-311
8.92537e-311
9.32342e-311
8.20583e-311
-4.87764e-311
-8.99507e-311
-1.34354e-310
-1.27899e-310
-1.1565e-310
-9.8251e-311
-5.38301e-311
-3.8719e-311
-1.18069e-310
-9.8942e-311
-2.64521e-311
-4.93009e-311
2.65826e-311
5.76162e-311
9.00397e-311
3.85245e-311
1.69486e-310
2.42732e-310
3.03573e-310
3.85647e-310
3.47286e-310
2.85069e-310
2.71438e-310
1.52735e-310
1.3303e-310
8.21403e-311
9.03504e-311
-3.88047e-311
-2.47481e-310
-3.37791e-310
-2.59312e-310
-1.73381e-310
6.2175e-312
7.79109e-311
1.10759e-310
3.71555e-311
4.28951e-311
6.01155e-311
-3.50164e-311
-1.04128e-310
-2.29573e-310
-3.01082e-310
2.85589e-310
3.21905e-310
3.86371e-310
3.47639e-310
2.93114e-310
2.5347e-310
1.8935e-310
1.79581e-310
1.58563e-310
1.92265e-310
4.81939e-311
-3.73122e-312
-7.2362e-311
-7.53024e-311
-1.92463e-310
-1.71233e-310
-1.621e-310
-2.13816e-310
-2.83261e-310
-2.34968e-310
-1.99952e-310
-2.26497e-310
-1.83452e-310
-1.5984e-310
-1.78772e-310
-1.36276e-310
-1.25419e-310
-9.50865e-311
-9.9646e-311
4.03449e-311
1.98468e-311
4.63705e-311
7.60951e-311
1.08233e-310
1.49209e-310
1.70538e-310
1.28263e-310
1.14667e-310
5.88193e-312
-1.69878e-311
-3.63276e-311
-1.25274e-310
-2.42883e-310
-3.07103e-310
-2.03059e-310
-1.11149e-310
-9.30554e-311
-1.95716e-311
4.4186e-311
3.86419e-311
6.35534e-311
7.13468e-311
1.07996e-310
1.16615e-310
1.47675e-310
2.09826e-310
2.13276e-310
2.1622e-310
2.45162e-310
2.61791e-310
2.48764e-310
1.87054e-310
1.21617e-310
5.16316e-311
-1.59242e-311
-9.48465e-311
-2.70183e-310
-3.44673e-310
-3.72277e-310
-3.25659e-310
-2.82819e-310
-2.45825e-310
-2.87884e-310
-3.51948e-310
-3.24329e-310
-2.49177e-310
-2.32302e-310
-2.2371e-310
-2.20473e-310
-2.31321e-310
2.95944e-310
2.48713e-310
2.694e-310
3.24826e-310
3.21661e-310
2.86227e-310
2.45233e-310
2.00071e-310
1.51932e-310
1.40778e-310
1.6653e-310
9.91646e-311
6.96947e-311
3.49092e-311
-5.19746e-311
-1.41003e-310
-1.37918e-310
-1.67491e-310
-1.69726e-310
-2.33969e-310
-2.39948e-310
-2.70457e-310
-2.60359e-310
-1.77677e-310
-1.80073e-310
-1.62333e-310
-1.81266e-310
-1.3525e-310
-1.06354e-310
-5.15192e-311
-5.44544e-311
-3.57968e-311
-8.33143e-311
-3.21168e-311
-5.00077e-311
-9.08632e-312
1.38468e-311
1.19084e-312
2.66078e-311
-3.96451e-311
-7.7552e-311
-1.44295e-310
-1.55343e-310
-2.10274e-310
-1.81598e-310
-4.85805e-311
9.18365e-312
9.89968e-312
-6.26337e-311
-6.77595e-311
-3.48726e-312
1.87424e-311
5.02033e-311
8.30937e-311
1.16054e-311
9.40404e-311
2.27414e-310
2.24782e-310
2.27612e-310
2.3789e-310
2.47673e-310
1.69211e-310
2.49862e-311
-1.62393e-310
-2.17307e-310
-1.3691e-310
-2.00035e-310
-2.77829e-310
-2.78938e-310
-3.78398e-310
-4.36513e-310
-5.24224e-310
-5.96892e-310
-6.7274e-310
-6.75738e-310
-6.10251e-310
-4.92373e-310
-3.60573e-310
-3.54894e-310
-3.56149e-310
1.59924e-310
2.38749e-310
2.85001e-310
2.74618e-310
4.11661e-310
4.79058e-310
3.97886e-310
2.70071e-310
1.26805e-310
9.19197e-311
2.25934e-312
6.28794e-311
1.00413e-310
3.08897e-311
8.89895e-311
6.84939e-311
8.13667e-311
-1.10054e-311
-1.50526e-310
-2.43722e-310
-2.48671e-310
-2.15032e-310
-2.53978e-310
-2.87736e-310
-2.89664e-310
-3.13176e-310
-1.92254e-310
-1.03725e-310
-9.42743e-311
-1.09063e-310
-1.42874e-310
-9.62447e-311
-8.34639e-311
-7.53573e-311
-9.17301e-311
-5.8437e-311
-4.56839e-311
4.71301e-312
1.06581e-311
3.65581e-312
-8.68647e-311
-1.44045e-311
8.58511e-311
6.49498e-311
4.11619e-311
6.08997e-311
4.69834e-311
-8.36122e-312
-5.21408e-311
-9.99421e-311
-2.74679e-311
-5.98232e-311
-1.1025e-310
-1.21006e-310
-8.63108e-311
2.37089e-311
1.24842e-310
1.1458e-310
1.15303e-310
1.10453e-310
1.02083e-310
5.57247e-311
-3.05528e-311
-1.48661e-310
-2.15323e-310
-1.80328e-310
-1.89024e-310
-1.32511e-310
-1.5028e-310
-2.21728e-310
-3.11375e-310
-3.07538e-310
-4.03409e-310
-4.5937e-310
-5.11654e-310
-4.30342e-310
-2.92074e-310
-2.78156e-310
-3.27684e-310
-3.51532e-310
7.13167e-311
7.33789e-311
1.30181e-311
4.43215e-311
1.4718e-310
2.63039e-310
2.55465e-310
2.031e-310
1.80688e-310
1.428e-310
4.02937e-311
1.95167e-311
-2.28783e-311
1.37756e-312
7.84076e-312
7.42014e-312
-6.27136e-311
-6.97582e-311
-1.90352e-310
-1.37186e-310
-1.1073e-311
5.9717e-312
1.19959e-311
-4.03934e-311
-9.64387e-311
-1.1188e-310
-3.62436e-311
2.79214e-311
-3.00252e-311
-4.2166e-311
-4.67627e-311
3.83388e-311
1.40449e-310
1.45438e-310
1.45359e-310
1.23187e-310
6.03555e-311
1.62669e-311
-6.4657e-311
-5.43441e-311
-7.44973e-311
1.61731e-311
7.62767e-311
1.76563e-310
1.65464e-310
1.69283e-310
6.78197e-311
1.2742e-310
1.07912e-310
9.56457e-311
8.74283e-311
3.22498e-311
-6.59315e-311
-2.03569e-311
4.11755e-312
3.96752e-311
1.37837e-311
-4.92897e-311
-1.22921e-310
-1.56117e-310
-1.9722e-310
-1.76663e-310
-1.60627e-310
-1.99314e-310
-1.72708e-310
-2.82943e-310
-3.05056e-310
-2.07272e-310
-1.62526e-310
-1.13115e-310
-1.2869e-310
-1.26251e-310
-1.43822e-310
-1.32444e-310
-6.71937e-311
7.59768e-312
-2.46285e-313
-6.72261e-311
-7.67106e-311
4.38954e-311
-7.61389e-311
-4.80359e-311
1.52431e-311
-4.34578e-311
-9.87025e-311
-5.919e-312
3.17781e-311
9.27111e-311
1.18465e-310
9.39062e-311
2.31222e-312
-1.65789e-310
-2.48946e-310
-2.05071e-310
-2.73881e-310
-2.66367e-310
-1.99639e-310
-1.3444e-310
-7.96485e-311
6.19508e-311
1.10162e-310
1.66968e-310
1.92412e-310
1.61974e-310
1.00246e-310
7.4409e-311
1.42433e-310
1.39099e-310
1.12126e-310
9.85474e-311
1.12906e-310
1.03454e-310
1.8951e-310
1.71395e-310
1.82776e-310
7.39069e-311
2.56972e-311
-9.07964e-311
-2.01859e-310
-1.80656e-310
-1.44358e-310
-4.19916e-311
9.08422e-311
1.22075e-310
8.60094e-311
1.16908e-310
1.2121e-310
1.57572e-310
1.15894e-310
1.34671e-310
8.43613e-311
-3.36812e-312
-3.97191e-311
-2.06658e-311
1.56978e-311
2.47188e-311
3.07031e-311
-1.09446e-310
-1.06986e-310
-1.19783e-310
-2.29965e-310
-2.59701e-310
-3.01561e-310
-3.41281e-310
-2.82369e-310
-3.87253e-310
-3.99529e-310
-3.37271e-310
-2.51935e-310
-1.99067e-310
-1.8198e-310
-1.75152e-310
-8.24281e-311
-2.78328e-311
7.43543e-311
4.98579e-311
-5.57212e-312
-2.00674e-311
7.18134e-311
8.94153e-311
-2.23941e-311
2.34753e-311
2.6399e-311
-1.06968e-311
-9.30913e-311
-2.06779e-310
-2.97144e-310
-2.98911e-310
-2.23849e-310
-2.27696e-310
-2.40586e-310
-2.64842e-310
-3.4091e-310
-3.18077e-310
-2.43914e-310
-1.40257e-310
-5.70389e-311
-3.57533e-311
2.57326e-311
4.12005e-311
1.09527e-311
3.86074e-312
-4.3076e-311
-7.0191e-311
-7.53899e-311
-2.18625e-311
2.35326e-311
8.6179e-311
1.19452e-310
1.72913e-310
1.3778e-310
1.28382e-310
7.34823e-311
4.87767e-311
7.61879e-311
-1.0071e-311
-1.01684e-310
-6.45515e-311
-1.39777e-310
-1.46407e-310
-9.56124e-311
-3.53376e-311
3.12368e-311
-4.69934e-311
-1.91163e-311
-2.44124e-311
8.88038e-312
1.49254e-311
1.17122e-312
3.98492e-311
2.01337e-311
-8.69306e-311
-1.03477e-310
-4.73381e-311
-2.52172e-311
-2.8707e-311
-2.8522e-311
4.15245e-312
-8.30896e-312
8.48127e-311
1.19615e-310
-8.57681e-313
-6.04334e-311
-1.41816e-310
-1.43503e-310
-1.0376e-310
-1.42541e-310
-1.44843e-310
-1.70193e-310
-2.03753e-310
-1.85194e-310
-8.16512e-311
4.17231e-312
7.05553e-311
6.00516e-312
-5.16685e-311
-7.61855e-311
-6.76584e-311
-7.26449e-312
1.25616e-310
1.0512e-310
1.15636e-310
3.3041e-311
-4.16799e-311
-1.14466e-310
-1.77799e-310
-3.14537e-310
-3.84505e-310
-4.23088e-310
-3.94213e-310
-2.32937e-310
-1.47625e-310
-1.92163e-310
-1.97378e-310
-6.32951e-311
-9.58811e-311
-1.19241e-310
-5.73055e-311
-1.89124e-311
-6.47506e-311
-3.27447e-311
-8.2088e-311
-1.25661e-310
-1.54836e-310
-1.30713e-310
-1.59643e-310
-1.76276e-310
-1.47331e-310
-7.6123e-311
-3.04197e-312
7.44468e-311
9.143e-311
3.47539e-311
4.58851e-311
4.71832e-311
3.93283e-311
-1.11449e-311
2.15961e-311
1.10203e-311
-2.04455e-311
-2.86289e-311
2.98375e-311
2.58997e-312
-5.36412e-312
-2.87109e-312
-1.32059e-312
-1.08269e-311
1.02516e-311
2.09546e-311
8.25338e-311
1.02289e-310
4.72021e-311
-1.86942e-311
5.11681e-311
2.06212e-311
-1.31519e-311
8.38806e-311
1.1342e-310
1.14961e-310
1.70164e-310
2.07735e-310
1.22918e-310
7.47432e-312
4.97168e-311
3.52137e-311
2.77943e-311
7.41144e-311
-9.9525e-312
-5.03971e-311
-7.1068e-311
-6.21534e-311
4.1283e-311
-8.46748e-312
3.36148e-311
7.61691e-311
7.48053e-311
5.47617e-311
2.10887e-310
2.21406e-310
2.94941e-310
4.20659e-310
3.51169e-310
2.80981e-310
3.11261e-310
2.09244e-310
1.79055e-310
1.10368e-310
2.404e-311
-6.68122e-311
-6.79072e-311
3.36086e-312
1.20003e-310
1.04415e-310
1.33929e-311
-1.02884e-310
-1.75448e-310
-2.0668e-310
-1.47991e-310
-1.76127e-310
-9.82577e-311
4.84154e-311
-1.65019e-311
-5.17981e-311
-1.30537e-311
-4.16918e-311
-9.30151e-311
-1.27614e-310
-1.25741e-310
-9.2565e-311
-8.04717e-312
1.40008e-311
4.61029e-311
1.06402e-310
9.15758e-311
9.08897e-311
6.81736e-311
6.84e-311
3.21584e-311
-1.20818e-311
-2.00607e-311
-9.1858e-311
-4.29077e-311
-3.02414e-311
3.3872e-311
6.98631e-312
1.17226e-310
1.06546e-310
2.20486e-311
1.48163e-311
4.07349e-311
9.96291e-311
8.66675e-311
7.2549e-311
1.28226e-310
6.70956e-311
9.74963e-311
1.69113e-310
1.30915e-310
7.23752e-311
1.96096e-311
-5.31842e-311
-7.96172e-311
-1.63373e-310
-1.91153e-310
-1.77495e-310
-2.02519e-310
-2.24163e-310
-1.48744e-310
-9.05613e-311
-6.30559e-312
-8.06235e-312
-7.48676e-311
-1.30938e-310
-4.37521e-311
3.69848e-311
1.05679e-310
1.15481e-310
2.07077e-310
2.55393e-310
1.95657e-310
6.87329e-310
6.85698e-310
6.72268e-310
6.50696e-310
5.9312e-310
5.56391e-310
5.35955e-310
4.62009e-310
2.83559e-310
1.93506e-310
7.6762e-311
-1.25625e-312
-9.25614e-313
-1.57612e-311
-3.21944e-311
-2.89522e-311
-2.834e-311
-5.5427e-311
-5.03438e-311
5.32098e-312
9.04065e-311
2.84391e-311
-6.23897e-311
-1.03805e-311
2.28979e-311
8.57268e-311
6.31944e-311
1.08598e-310
1.13765e-311
-9.27704e-312
-6.05981e-311
4.27854e-312