/*--------------------------------*- C++ -*----------------------------------*\
  =========                 |
  \\      /  F ield         | OpenFOAM: The Open Source CFD Toolbox
   \\    /   O peration     | Website:  https://openfoam.org
    \\  /    A nd           | Version:  11
     \\/     M anipulation  |
\*---------------------------------------------------------------------------*/
FoamFile
{
    format      ascii;
    class       volScalarField;
    location    "20";
    object      C;
}
// * * * * * * * * * * * * * * * * * * * * * * * * * * * * * * * * * * * * * //

dimensions      [0 0 0 1 0 0 0];

internalField   nonuniform List<scalar> 
332800
(
1.61158e-312
9.7925e-313
9.25365e-313
6.70476e-313
7.87095e-313
2.52629e-313
4.91394e-313
6.59859e-314
3.6808e-313
2.9816e-313
3.34766e-313
3.70276e-313
1.47141e-313
-2.53037e-313
-2.97781e-313
-8.41833e-315
-9.01138e-314
-7.88046e-314
4.46943e-314
8.24242e-314
5.09671e-315
1.12266e-313
6.60885e-314
9.92768e-314
7.62755e-314
2.59657e-314
2.29165e-314
-7.5208e-314
2.57121e-314
-8.70154e-314
-2.82374e-314
6.30434e-314
1.90045e-314
-1.22545e-313
2.58634e-314
7.64869e-314
-1.26349e-314
2.84793e-314
-4.47415e-314
-4.19896e-314
-4.63031e-314
8.64997e-314
9.08342e-314
-6.20844e-314
-5.89443e-314
-1.95115e-314
5.27888e-314
1.83895e-314
-7.12733e-314
-1.82221e-314
2.43733e-314
3.07096e-314
2.15977e-314
-1.50562e-314
9.79987e-314
-2.12827e-314
1.4881e-313
-2.00166e-314
2.06601e-314
6.81716e-314
1.60628e-313
1.17043e-315
9.9259e-314
9.35184e-315
6.8987e-314
-1.26914e-313
-7.12351e-314
-3.34752e-314
1.08685e-313
2.59619e-314
-6.05836e-314
-3.33202e-314
4.3189e-313
1.21997e-312
1.76507e-312
1.20611e-312
6.84887e-313
-1.85562e-313
-6.85543e-313
-5.12903e-313
1.67429e-312
3.67922e-313
-1.04953e-313
7.98173e-313
1.38662e-312
1.05732e-312
1.07745e-312
3.50809e-313
9.27916e-313
1.92957e-313
6.85262e-314
7.04599e-313
1.62463e-313
-4.47578e-313
-3.26904e-313
-1.55487e-313
1.68453e-313
2.71018e-314
4.96307e-314
-1.24663e-313
3.51168e-314
1.05545e-313
-7.78863e-315
-4.70214e-314
3.7372e-314
5.65146e-314
2.10838e-315
-3.92984e-314
-1.52985e-314
3.31803e-314
-1.4394e-313
-1.35547e-313
-1.41224e-313
1.80628e-313
-1.09985e-314
-7.04028e-314
-5.81473e-314
1.73388e-314
-3.36001e-315
-4.73919e-314
-9.20591e-314
2.47292e-314
-5.53331e-315
-9.44893e-314
-1.4115e-313
6.62169e-314
-2.56477e-314
7.72046e-314
1.12939e-314
4.30737e-314
3.61578e-314
2.52289e-314
5.28188e-314
1.57171e-313
4.79064e-314
7.95539e-314
9.54541e-314
9.1658e-314
9.23322e-314
1.79579e-313
-1.15453e-313
-4.23187e-314
6.43543e-314
7.29114e-315
-9.22833e-314
-1.17852e-313
1.13413e-313
1.04376e-313
-1.18937e-313
-1.26662e-313
6.44224e-314
1.29126e-313
5.9312e-313
7.0371e-313
2.79447e-313
9.12673e-313
6.85404e-313
9.1354e-313
-1.41997e-313
1.66486e-312
5.5643e-313
1.44988e-313
2.82806e-314
9.44319e-313
1.63748e-312
1.06964e-312
1.37187e-312
7.85301e-313
1.45111e-312
8.35003e-313
6.49571e-313
8.13465e-313
4.74185e-313
-2.78357e-313
-5.01473e-313
-2.2917e-313
6.87773e-314
1.39159e-313
1.83192e-313
-3.61806e-314
-3.88828e-314
4.17466e-314
7.01709e-314
-7.88334e-314
-6.47256e-314
5.90499e-314
-6.05557e-314
6.62547e-314
7.92192e-314
1.06917e-313
7.20784e-314
-1.55008e-314
4.44565e-314
9.36891e-314
3.22595e-314
-2.97766e-314
-6.22468e-314
9.12853e-315
-1.34166e-314
1.54558e-314
-4.77698e-314
1.79874e-314
3.99873e-314
5.88699e-314
-1.36326e-313
-7.89756e-314
2.57782e-314
-8.89698e-314
9.0951e-314
8.02783e-314
-1.82781e-314
1.29256e-314
-2.71176e-314
1.5825e-313
9.79383e-314
-2.69418e-314
-7.81108e-314
3.28109e-314
-2.98474e-314
9.2516e-314
-8.38755e-314
5.63557e-314
-1.98022e-313
-1.05774e-313
1.0477e-314
-1.15003e-313
-1.44106e-314
2.13456e-313
-4.20907e-314
-2.10591e-314
-6.43319e-314
1.23707e-313
7.80864e-313
1.34845e-315
5.93796e-313
9.58878e-313
1.37354e-312
2.98334e-312
3.01602e-312
3.71291e-312
-2.21704e-312
-1.12842e-312
-1.90704e-312
-7.97531e-313
8.37184e-313
7.73331e-313
1.46585e-312
1.35631e-312
1.74144e-312
1.92514e-312
1.11994e-312
8.07517e-313
6.91288e-313
8.73831e-314
-3.69235e-313
-4.31116e-313
-2.97956e-313
2.78244e-314
2.40786e-313
6.45767e-314
5.94495e-315
9.83946e-314
1.60099e-314
-1.83467e-313
1.75017e-314
5.54346e-315
-6.61192e-314
8.78893e-314
1.37474e-313
-1.56201e-314
-3.27007e-314
6.37242e-314
-1.18323e-314
-1.3801e-313
-1.56558e-313
3.23026e-314
-2.08423e-314
9.2441e-314
-1.04572e-314
6.91459e-314
-7.25538e-314
1.24983e-314
-1.25009e-314
-1.34702e-314
-2.04706e-313
-1.26075e-313
-2.36386e-313
-6.53479e-314
-2.75871e-314
-5.37829e-315
7.82085e-314
1.29807e-314
1.96478e-313
2.80796e-313
2.18735e-313
1.19019e-313
8.78142e-314
1.54703e-313
1.76212e-313
7.5945e-314
-8.78924e-314
-6.09172e-314
-3.6904e-313
7.10163e-315
-1.14919e-314
-1.43397e-313
9.38681e-314
-1.07409e-313
2.57251e-313
2.63162e-313
1.56653e-313
4.07975e-313
4.20267e-314
1.48358e-313
-2.19448e-313
1.84957e-313
1.39794e-312
2.14671e-312
1.92824e-312
2.0605e-312
-1.58253e-312
-2.44251e-312
-1.4109e-312
-1.08901e-312
-8.18289e-314
5.82424e-313
1.3921e-312
1.00563e-312
1.56638e-312
1.39811e-312
1.20861e-312
8.79314e-313
8.35962e-313
4.47966e-313
2.62019e-313
-4.11005e-313
-7.27808e-315
4.06382e-313
1.7545e-313
1.23296e-313
8.87477e-314
-2.78616e-315
3.8946e-315
-2.13093e-313
-1.88991e-313
-1.86538e-313
-1.0877e-313
3.16663e-314
3.06802e-314
6.26821e-314
2.07013e-313
1.04915e-313
-4.19056e-314
-2.14103e-313
-8.93154e-314
-2.96808e-315
1.59377e-314
2.49083e-314
5.09678e-314
-8.25573e-314
-1.24671e-313
7.14378e-314
5.18295e-314
-5.84892e-314
-8.10868e-314
5.40519e-314
-4.87563e-313
-2.16049e-313
-2.09437e-314
1.96331e-314
9.04601e-314
1.17635e-313
3.32027e-313
3.74225e-313
1.0439e-313
-2.72903e-314
-1.76547e-313
1.53214e-313
2.29574e-313
4.84245e-314
1.36867e-313
5.12323e-314
-2.851e-313
3.70181e-315
-2.90526e-313
-2.40056e-313
-3.52504e-314
2.83775e-313
6.60594e-313
9.10826e-313
9.0799e-313
7.00144e-313
4.98526e-313
5.54427e-313
2.62701e-313
2.265e-314
1.05405e-312
1.7117e-312
1.44361e-312
3.36096e-312
-8.57781e-313
-1.10918e-312
-2.13651e-312
-2.63622e-312
-2.09334e-312
-6.75221e-313
2.55272e-313
3.52458e-313
4.03676e-313
1.15183e-312
9.07923e-313
1.04899e-312
9.54657e-313
5.68836e-313
7.56905e-313
2.76799e-313
2.25771e-313
6.93429e-313
1.60079e-313
6.90202e-314
-2.61456e-314
-1.60444e-314
-1.84917e-313
-2.22538e-313
5.81201e-315
-1.62699e-313
5.23867e-315
1.46301e-314
5.33732e-314
9.52293e-314
2.79957e-313
7.44912e-314
-2.65411e-315
-1.95653e-313
-1.13794e-313
-8.73989e-315
-8.58115e-314
-2.90599e-314
1.99585e-314
2.55706e-314
1.10222e-313
-1.67638e-313
-1.03746e-313
-3.90405e-314
-1.01218e-313
4.32568e-314
-3.33212e-313
-1.96005e-313
-2.08677e-313
-1.5003e-313
7.4103e-314
-2.77669e-314
4.45073e-313
4.88234e-313
1.73873e-313
4.23538e-313
1.38841e-313
3.17112e-313
2.14975e-313
3.09184e-313
1.54766e-313
2.10645e-314
-2.18775e-314
-1.20853e-314
-3.00765e-313
1.33359e-313
1.79734e-314
2.75531e-314
6.131e-313
1.32387e-312
9.79435e-313
7.56879e-313
5.25405e-313
2.51522e-314
1.01697e-313
5.87034e-313
8.79683e-313
1.45898e-312
4.43148e-313
7.59598e-313
-1.62782e-312
-1.11022e-312
-1.13282e-312
-1.30107e-312
-9.64272e-313
-1.35766e-312
-5.7397e-313
1.29057e-313
-2.95643e-314
7.33139e-313
1.01724e-312
8.57467e-313
9.50055e-313
8.08514e-313
6.74127e-313
6.68224e-313
5.63013e-313
6.27717e-313
3.67048e-313
2.62779e-313
-4.32785e-314
-2.31249e-316
8.52632e-314
-1.44069e-313
-2.9586e-314
-3.49029e-313
-1.05498e-313
1.35263e-313
-1.46879e-313
1.696e-313
4.20319e-313
1.73341e-314
4.23776e-315
-1.06111e-314
-8.2612e-314
-2.48801e-313
3.28684e-314
5.09414e-314
-4.61632e-314
-1.25087e-313
-1.12077e-313
1.27139e-314
-8.82119e-314
-2.00874e-313
-1.1001e-313
3.47307e-314
-2.67227e-313
-1.5013e-313
-1.60573e-313
-7.66531e-314
-1.05121e-313
2.20966e-314
6.76264e-313
8.53191e-313
5.55605e-313
5.96515e-313
1.99477e-313
3.04304e-313
1.95842e-313
5.03972e-313
2.50045e-313
4.18224e-314
-5.21287e-314
4.32597e-314
-4.95725e-313
-2.57695e-313
-6.02006e-314
-1.84603e-314
1.63037e-313
1.1166e-312
3.93844e-313
1.25522e-313
4.05315e-313
1.93026e-313
8.74891e-313
-2.09692e-313
6.24405e-313
1.16532e-312
1.00256e-312
1.38154e-312
-5.0446e-312
-3.16607e-312
-1.73552e-312
-7.46732e-313
-1.03392e-312
-1.09736e-312
-1.54246e-312
-8.46597e-313
-1.10322e-312
1.66492e-314
7.38901e-313
8.19597e-313
1.52097e-312
1.04366e-312
8.09287e-313
1.14258e-312
4.78602e-313
9.8784e-313
5.40057e-313
4.17279e-313
3.85671e-314
9.75257e-314
-3.69781e-314
-8.78399e-314
-1.19962e-313
-3.99496e-313
-1.88115e-313
2.74642e-313
-1.02664e-313
6.84356e-315
1.86278e-313
3.16728e-314
3.22849e-314
-6.33734e-314
2.17831e-314
-2.66877e-313
-8.10813e-314
9.2175e-314
7.86831e-314
-2.43443e-315
1.94105e-313
-1.27324e-313
-1.83978e-313
-3.02097e-313
-2.80269e-313
6.81914e-314
-2.8919e-313
-8.66027e-314
-1.39092e-314
-5.25374e-314
-1.37206e-313
-7.0471e-314
5.92294e-313
8.30288e-313
6.44026e-313
6.33548e-313
3.54689e-313
3.62603e-313
2.39664e-313
4.86706e-313
4.56459e-313
3.56751e-313
-1.18313e-313
-6.51193e-314
-4.83072e-313
-5.79651e-313
-1.38549e-313
-9.69719e-314
-1.41322e-313
7.99741e-313
-1.28474e-313
-4.54804e-313
-5.76037e-313
-2.29006e-313
8.36569e-313
3.3212e-314
3.867e-315
-1.95778e-313
-3.26659e-313
9.12518e-315
-6.32139e-313
-1.47743e-312
7.74481e-313
-7.57565e-314
3.247e-313
-6.12502e-313
-1.00176e-312
-1.09479e-312
-7.66287e-313
-4.08874e-313
9.26357e-313
6.37538e-313
1.47145e-312
1.31606e-312
9.41235e-313
1.7283e-312
7.23663e-313
1.09577e-312
4.47374e-313
1.58604e-313
2.09747e-313
1.40724e-313
1.18618e-313
-1.11643e-313
-3.07432e-315
-6.55117e-313
-2.49771e-313
1.3401e-313
2.06702e-314
1.14161e-313
1.92434e-313
2.09381e-313
-2.78739e-314
-1.35346e-313
-1.00426e-313
-2.76384e-313
-6.36427e-315
-1.46868e-314
-3.99982e-314
3.49835e-314
2.0426e-313
-8.84706e-314
-3.20279e-313
-2.67584e-313
-3.75798e-313
8.43991e-314
-3.94451e-313
-2.15385e-313
-5.93378e-314
-1.59e-313
-2.44818e-313
1.09252e-314
6.46836e-313
7.25005e-313
6.24522e-313
9.49886e-313
6.10535e-313
3.46335e-313
2.0659e-313
6.39169e-313
5.92673e-313
5.1516e-313
-1.05796e-313
2.81476e-313
-3.95195e-313
-7.51778e-313
-5.87172e-313
-5.407e-313
-8.67576e-314
7.40726e-314
-2.4051e-313
-1.38656e-312
-2.11073e-312
-1.76312e-312
-4.33677e-313
-4.69653e-313
-1.22123e-313
-1.31869e-313
1.3241e-313
6.48002e-314
-1.30192e-313
-3.95695e-313
1.14624e-312
3.24917e-313
1.72333e-313
-3.5691e-313
-6.90643e-313
-5.93702e-313
-6.00744e-313
-4.94438e-313
1.30299e-312
7.43248e-313
1.72776e-312
1.65553e-312
7.29739e-313
1.58158e-312
6.78743e-313
1.28671e-312
6.88021e-313
2.84268e-313
-1.08363e-313
-1.08555e-313
-9.82249e-314
-3.50866e-314
-2.97101e-313
-7.47387e-313
-6.12903e-313
-1.37692e-313
-2.01854e-314
2.42846e-313
2.63918e-313
1.32225e-313
5.09901e-315
6.18947e-314
-1.23227e-313
-2.76097e-313
-1.46942e-313
-1.95316e-313
-8.01546e-314
-1.05327e-313
1.35632e-313
-6.47981e-314
-3.25245e-313
-4.18898e-313
-3.58427e-313
-5.94022e-314
-4.90118e-313
-3.19146e-313
-9.27617e-314
-1.27659e-313
-6.76074e-314
1.63179e-313
6.49615e-313
5.45741e-313
4.86586e-313
7.63537e-313
4.08893e-313
1.12684e-313
2.16487e-313
1.20505e-312
8.28409e-313
6.4878e-313
2.15627e-313
3.2445e-313
-5.30007e-313
-9.87425e-313
-4.33023e-313
-1.865e-313
2.10439e-313
9.51492e-313
1.10679e-313
-8.90853e-313
-1.41501e-312
-2.43039e-312
-2.65381e-312
-3.09535e-312
-2.19101e-312
-1.40036e-312
-1.85114e-312
-1.34396e-312
1.9902e-313
1.19814e-312
1.78858e-312
1.32833e-312
-1.71886e-313
-2.62608e-313
-1.30561e-312
-1.28258e-312
-4.50985e-313
-1.80346e-312
9.69656e-313
8.9747e-313
1.67827e-312
1.71476e-312
9.3582e-313
1.47792e-312
2.64447e-313
9.65004e-313
5.52177e-313
3.79686e-313
-2.17583e-313
7.61176e-314
-1.68066e-313
-4.9726e-314
-4.17509e-313
-8.10276e-313
-6.15041e-313
-3.57604e-313
-1.35344e-313
-1.39216e-313
2.97345e-313
2.04429e-313
-1.69976e-314
-2.09364e-313
-3.08572e-313
-4.53718e-313
-2.87339e-313
-2.6689e-313
3.95555e-314
-8.25345e-314
6.4771e-314
-4.76212e-314
-2.0456e-313
-1.7551e-313
-2.67598e-313
-1.31318e-313
-4.8682e-313
-4.99097e-313
-2.28295e-313
-2.22577e-313
-2.28721e-313
-2.18434e-313
8.33191e-313
8.13982e-313
6.65975e-313
8.91028e-313
6.15582e-313
4.66404e-313
3.28048e-313
1.2897e-312
8.97827e-313
6.30612e-313
2.93474e-313
2.95233e-313
-4.1641e-313
-8.51107e-313
-6.29513e-313
-5.7343e-313
-3.99979e-316
9.6563e-313
-2.46648e-314
-1.10891e-312
-1.96347e-312
-2.26815e-312
-2.65903e-312
-2.89582e-312
-2.49349e-312
-6.9059e-313
-1.10581e-312
-6.16321e-314
1.31406e-312
1.15622e-312
1.34961e-312
5.69227e-313
-5.11662e-313
-9.91535e-314
-1.16808e-312
-1.26308e-312
-1.71793e-313
-7.46589e-313
4.31025e-313
8.6905e-313
1.35106e-312
1.8447e-312
4.19857e-313
1.06492e-312
4.72279e-314
8.05202e-313
6.28729e-313
5.9787e-313
5.03474e-315
-1.01746e-313
-3.08716e-313
-6.19201e-314
-3.31586e-313
-7.91563e-313
-6.6425e-313
-5.62267e-313
-2.30113e-313
-2.17915e-313
1.47931e-313
7.03965e-314
-1.43979e-314
-1.88194e-313
-2.07855e-313
-4.78833e-313
-2.11487e-313
-2.76835e-313
-7.83904e-314
-2.62415e-313
2.11367e-313
-4.65138e-314
-1.95799e-313
-3.72631e-313
-4.44226e-313
-1.52654e-313
-4.76918e-313
-6.35475e-313
-4.94851e-313
-1.45098e-313
-2.39508e-313
9.12943e-314
6.22107e-313
9.14886e-313
9.28721e-313
9.88504e-313
5.57189e-313
6.83287e-313
2.6929e-313
1.21365e-312
1.03384e-312
8.0307e-313
3.08559e-313
4.16691e-314
-8.00852e-314
-9.30907e-313
-7.15769e-313
-5.58083e-313
9.51351e-314
9.55019e-313
4.07768e-313
-7.12217e-313
-1.02526e-312
-2.3772e-312
-1.051e-312
-2.22422e-312
-1.32546e-312
-1.26935e-312
-5.84937e-313
5.46952e-313
9.85381e-313
1.26125e-312
8.07743e-313
9.2148e-313
4.9019e-313
3.21988e-313
-6.843e-313
-1.31127e-312
-2.50408e-313
-7.47661e-313
2.60363e-313
6.1201e-313
1.28038e-312
1.86428e-312
3.83243e-313
8.9828e-313
-2.80241e-313
3.65088e-313
6.73583e-313
6.42373e-313
5.17201e-314
8.95469e-314
-5.10862e-313
-2.06724e-313
-2.5818e-313
-8.92653e-313
-9.20129e-313
-6.21786e-313
-1.10532e-313
-1.15369e-313
5.92012e-314
8.35739e-314
-1.7421e-316
-3.07675e-313
-3.51959e-313
-4.83507e-313
-4.71699e-313
-4.06707e-313
-7.82213e-314
-1.76587e-313
8.82981e-314
-1.8166e-313
-6.45899e-314
-3.64466e-313
-5.59192e-313
-2.07846e-313
-2.74045e-313
-5.02759e-313
-6.42233e-313
-3.75156e-313
-1.55602e-313
-1.15211e-313
4.30661e-313
7.61652e-313
1.08105e-312
1.2542e-312
5.64881e-313
8.90592e-313
4.55875e-313
1.1708e-312
1.21766e-312
8.33799e-313
3.94754e-313
1.74619e-313
-3.48359e-313
-9.94847e-313
-1.09934e-312
-5.26066e-313
4.07585e-313
8.40685e-313
4.6002e-313
8.65384e-313
-1.02813e-312
-1.72257e-312
-3.53189e-313
-2.32763e-312
-1.26215e-312
-2.28335e-312
-1.99038e-312
-1.77427e-312
7.80364e-313
-1.87957e-313
5.91284e-313
5.47269e-313
6.04596e-313
8.18195e-313
1.48332e-313
-6.89902e-313
-3.48178e-313
-3.70746e-313
9.66757e-314
5.05309e-313
8.88006e-313
1.62841e-312
4.62481e-313
1.20551e-312
-6.06603e-313
3.60731e-313
3.04181e-313
6.85058e-313
-9.56834e-314
-3.04235e-313
-7.76841e-314
-2.33099e-313
-2.86982e-313
-8.31861e-313
-1.19671e-312
-7.31836e-313
-2.96475e-313
-2.97956e-313
2.68184e-314
3.81584e-314
-3.61141e-314
-3.52402e-313
-4.36566e-313
-5.66846e-313
-5.85028e-313
-4.35427e-313
-1.93554e-313
-2.15519e-313
1.07465e-313
-9.5077e-314
-2.18318e-313
-1.56219e-313
-5.43384e-313
-2.95037e-313
-4.37338e-314
-5.60672e-313
-6.75282e-313
-5.4133e-313
-4.09642e-313
-1.69301e-313
1.00649e-313
4.95243e-313
9.66732e-313
1.06159e-312
2.6791e-313
5.89683e-313
3.64105e-313
1.07163e-312
1.08715e-312
5.50513e-313
4.5699e-313
1.55994e-313
-4.6667e-314
-3.48433e-313
-8.4689e-313
-6.7114e-313
1.34203e-313
3.39691e-313
4.30745e-313
4.60215e-313
-7.0201e-313
-1.39252e-312
-1.02365e-313
-1.64261e-312
-1.49215e-313
-8.28573e-313
-3.38026e-312
-2.08159e-312
4.05706e-312
3.0755e-312
1.73302e-312
1.69832e-312
1.63212e-312
1.71008e-312
7.17824e-313
-2.56414e-313
1.37245e-314
3.1576e-313
2.12375e-313
2.93368e-313
6.01516e-313
1.26423e-312
3.34527e-313
1.44836e-312
-8.4261e-313
1.97172e-313
3.01465e-313
5.27776e-313
7.05262e-315
-2.7278e-313
1.4852e-314
-2.43103e-313
-5.00894e-313
-8.40801e-313
-1.3798e-312
-1.06938e-312
-4.43036e-313
-4.05972e-313
3.63733e-314
9.53128e-314
-1.00364e-313
-3.14166e-313
-5.3646e-313
-6.91962e-313
-5.73391e-313
-3.17884e-313
-1.74656e-313
-1.95248e-313
-1.13925e-313
-2.75661e-313
-2.34472e-313
-3.67015e-313
-4.83706e-313
-4.54513e-313
-1.20188e-313
-5.79633e-313
-7.65675e-313
-6.18597e-313
-7.78137e-313
-5.30092e-313
-2.51901e-313
2.75484e-313
7.7587e-313
8.48983e-313
4.77451e-313
3.03591e-313
3.30644e-313
1.05505e-312
9.90756e-313
8.91444e-313
8.96173e-313
3.52842e-313
6.61747e-314
-3.33658e-313
-5.03567e-313
-5.92928e-313
-2.49037e-313
1.70471e-313
2.75968e-313
5.46149e-313
-1.69952e-313
-9.31827e-313
-5.33151e-314
-9.02405e-313
3.21011e-313
1.28476e-312
1.26913e-313
-3.24874e-313
1.80128e-312
1.4688e-312
2.38837e-313
1.39178e-312
1.24748e-312
1.74622e-312
8.62091e-313
3.50123e-313
2.64225e-313
6.03851e-313
3.40352e-313
4.52391e-313
4.06891e-313
9.41229e-313
3.0677e-314
1.12227e-312
-4.37291e-313
1.2213e-313
3.1497e-313
6.18816e-313
1.37316e-313
-3.04201e-313
-2.25829e-313
-4.45687e-313
-5.56471e-313
-7.2878e-313
-1.36219e-312
-7.8927e-313
-6.1462e-313
-3.476e-313
-4.58324e-315
1.48748e-313
-7.43915e-314
-1.5918e-313
-4.81776e-313
-6.26167e-313
-6.58697e-313
-4.55013e-313
-1.32065e-313
-2.86264e-313
-2.7403e-313
-2.14666e-313
-3.63675e-313
-3.92778e-313
-3.37212e-313
-4.36917e-313
-3.11013e-313
-4.92475e-313
-5.64635e-313
-6.71249e-313
-9.08533e-313
-7.78003e-313
-4.06677e-313
9.90247e-315
5.29927e-313
8.73306e-313
3.60438e-313
4.50781e-313
5.368e-313
1.46319e-312
1.28855e-312
1.15365e-312
9.2001e-313
2.71298e-313
3.25825e-313
-4.01949e-313
-3.46487e-313
-5.10722e-313
-2.31078e-313
1.02114e-313
2.89844e-313
7.66788e-313
-4.26428e-314
-9.52169e-313
2.65426e-313
-5.52486e-313
-1.08124e-312
-9.83823e-314
-9.02106e-313
-5.69983e-313
2.59886e-312
1.3845e-312
3.73485e-313
1.06931e-312
6.08336e-313
1.13079e-312
3.78634e-313
-3.24352e-313
3.12889e-313
6.51023e-313
3.47376e-313
1.52738e-313
1.10863e-313
1.45167e-313
-3.04985e-313
7.17872e-313
-5.23527e-313
8.44807e-314
3.0228e-313
7.41934e-313
3.48399e-313
-2.22157e-313
-2.53483e-313
-6.0459e-313
-6.20937e-313
-8.07317e-313
-1.1527e-312
-7.30344e-313
-7.53322e-313
-3.43848e-313
-1.57925e-313
1.03628e-313
-1.74747e-314
-2.11402e-313
-4.2516e-313
-5.42859e-313
-8.56012e-313
-3.81866e-313
-2.43448e-313
-2.46411e-313
-1.62852e-313
-1.90977e-313
-6.06248e-313
-6.88619e-313
-3.68668e-313
-6.00565e-313
-5.10302e-313
-5.38403e-313
-7.25287e-313
-8.8684e-313
-1.08348e-312
-8.00644e-313
-6.80885e-313
-2.61517e-313
3.88241e-313
8.64711e-313
5.06016e-313
4.92089e-313
3.75571e-313
1.12213e-312
1.44872e-312
1.21375e-312
9.77135e-313
5.67868e-313
9.85647e-313
4.18359e-313
-2.71788e-313
-1.21404e-313
-5.30831e-313
1.1049e-314
1.49447e-313
1.78959e-313
-5.05958e-313
-1.74912e-312
-9.09302e-313
-1.08537e-312
-1.95147e-312
-1.8147e-312
-2.6545e-312
-4.31669e-312
-2.20776e-312
-8.89232e-313
-4.79501e-313
5.7399e-314
7.1938e-313
1.28633e-312
3.61642e-313
-6.30844e-313
-2.76662e-313
3.74075e-314
9.68148e-314
-1.01884e-314
-2.44675e-313
8.84953e-314
-2.40054e-314
8.97129e-313
-2.06213e-313
2.91668e-313
6.78491e-313
9.44809e-313
4.7434e-313
-4.61089e-314
-5.25988e-313
-8.35311e-313
-1.07237e-312
-8.64026e-313
-1.28716e-312
-1.35635e-312
-9.87424e-313
-3.85047e-313
-2.03519e-313
6.5606e-314
-2.19276e-313
-4.02688e-313
-6.54016e-313
-7.6229e-313
-1.00363e-312
-6.91182e-313
-2.48083e-313
-4.96214e-313
-2.45063e-313
-2.4866e-313
-5.10866e-313
-5.46967e-313
-5.38681e-313
-5.72231e-313
-4.35188e-313
-6.10274e-313
-8.2846e-313
-1.08166e-312
-1.1154e-312
-9.10184e-313
-9.71423e-313
-5.42401e-313
1.08834e-313
8.08816e-313
7.66853e-313
3.51415e-313
4.76214e-313
9.23923e-313
1.41174e-312
1.34267e-312
1.22327e-312
2.74609e-313
6.81975e-313
3.17297e-313
-1.69458e-314
-5.21768e-313
-9.17919e-313
-1.81988e-313
2.91935e-313
5.06408e-313
-9.13565e-314
-2.01172e-312
-1.64577e-312
-1.18105e-312
-1.98116e-312
-1.74137e-312
-3.01028e-312
-4.38988e-312
-4.21129e-312
-1.20973e-312
-1.32983e-312
-3.02602e-313
4.23958e-313
9.21608e-313
-1.97308e-313
-8.77498e-313
-3.87411e-313
-1.4579e-313
-5.92481e-314
-7.34852e-314
1.7626e-313
2.22399e-313
2.33731e-313
9.4134e-313
1.93122e-313
4.28311e-313
8.28004e-313
8.44618e-313
2.08572e-313
-9.9776e-314
-6.95313e-313
-8.8268e-313
-1.26216e-312
-7.09673e-313
-1.38132e-312
-1.23743e-312
-9.73475e-313
-4.20305e-313
-2.43192e-313
-2.1042e-313
-5.0996e-313
-4.29771e-313
-7.98414e-313
-8.22634e-313
-1.09382e-312
-1.24145e-312
-4.94983e-313
-3.96027e-313
-2.69706e-313
-1.68251e-313
-4.77578e-313
-7.12719e-313
-7.5159e-313
-5.8869e-313
-1.89886e-313
-5.29315e-313
-9.55559e-313
-1.20793e-312
-1.11274e-312
-9.00005e-313
-9.35939e-313
-5.76147e-313
1.34244e-313
6.32192e-313
6.89199e-313
3.79816e-313
6.64913e-313
7.13401e-313
1.68323e-312
1.67315e-312
1.42076e-312
1.91483e-313
6.11697e-313
-6.68634e-314
1.48265e-313
-5.13453e-313
-1.24477e-312
-1.26322e-312
-6.76218e-313
6.61189e-313
2.80024e-313
-1.36482e-312
-1.60921e-312
-9.42995e-313
-7.30206e-313
4.56801e-313
9.27061e-313
-5.70523e-313
-3.73616e-312
-1.31339e-312
-1.74485e-312
6.73958e-314
4.32167e-313
1.19083e-312
3.95352e-313
-9.94177e-313
-8.56465e-313
-2.93247e-315
1.07586e-313
2.42217e-314
1.35297e-313
-2.49485e-313
2.2192e-313
7.68141e-313
-1.50391e-313
2.70133e-313
9.24052e-313
6.55483e-313
4.53146e-313
-2.22531e-313
-7.37238e-313
-1.24964e-312
-1.45329e-312
-6.14151e-313
-1.22788e-312
-9.76567e-313
-7.48155e-313
-3.99167e-313
-3.66552e-313
-4.15454e-313
-8.31768e-313
-5.12152e-313
-6.37855e-313
-8.90548e-313
-1.12544e-312
-1.67484e-312
-1.10388e-312
-5.43733e-313
-2.56957e-313
-1.23088e-314
-5.82345e-313
-9.02525e-313
-5.77086e-313
-4.80879e-313
-1.82325e-313
-6.10777e-313
-1.12762e-312
-1.00045e-312
-1.34401e-312
-1.0303e-312
-8.56652e-313
-9.13644e-313
-1.00235e-313
3.17643e-313
6.42867e-313
4.57949e-313
8.56729e-313
5.46184e-313
1.22322e-312
1.50725e-312
1.4063e-312
2.91328e-313
7.4831e-313
1.33357e-313
7.75687e-313
-1.26708e-313
-7.66743e-313
-9.66588e-313
-1.43055e-313
2.7879e-313
2.22729e-313
-8.67343e-313
-5.94536e-313
-1.71087e-313
5.55187e-313
2.23808e-312
2.93541e-312
2.29214e-312
-5.69916e-312
-3.16106e-312
-3.0316e-312
-1.13276e-312
-3.67474e-313
1.10088e-312
1.12416e-312
-7.06149e-313
-9.84541e-313
-3.92836e-313
-1.65399e-313
-2.35138e-313
-8.59438e-313
-1.51713e-313
-3.32401e-313
6.81266e-313
-3.20315e-313
1.66205e-313
1.04997e-312
6.88988e-313
2.57848e-313
-4.96667e-313
-7.81124e-313
-1.0239e-312
-1.46395e-312
-4.36277e-313
-1.03207e-312
-1.01816e-312
-8.98591e-313
-4.36857e-313
-6.20253e-313
-4.08859e-313
-1.04229e-312
-5.89074e-313
-4.80115e-313
-7.09427e-313
-1.04309e-312
-1.42872e-312
-9.80737e-313
-4.98166e-313
-2.34826e-313
-7.56322e-315
-5.74433e-313
-9.47172e-313
-7.88802e-313
-5.07351e-313
-9.27995e-314
-5.7156e-313
-1.15822e-312
-9.97254e-313
-1.3599e-312
-1.17794e-312
-9.99961e-313
-1.04648e-312
-3.37325e-313
6.06082e-315
3.80973e-313
6.41947e-313
9.61102e-313
7.45149e-313
1.03325e-312
1.49286e-312
1.48314e-312
1.38995e-313
5.95192e-313
7.41766e-314
1.04422e-312
2.52029e-313
-9.2816e-313
-1.44608e-312
-4.41826e-313
-1.45351e-314
3.22999e-313
-7.13488e-313
-2.14561e-313
-1.17067e-313
-7.37334e-314
4.75026e-313
4.58396e-313
-3.46016e-314
-3.64089e-312
-3.87793e-312
-3.57268e-312
-2.20599e-312
-1.72943e-312
1.11014e-312
1.13792e-313
-5.25751e-313
-1.03294e-312
-1.26156e-312
-6.57874e-313
-6.34385e-313
-9.63614e-313
-6.65352e-313
-3.71823e-313
5.26441e-313
9.58286e-314
7.05228e-314
1.0572e-312
9.54249e-313
2.77956e-313
-5.30289e-313
-8.74143e-313
-1.10236e-312
-1.6156e-312
-1.74192e-313
-7.60374e-313
-7.67151e-313
-7.29849e-313
-6.21875e-313
-8.82129e-313
-6.63938e-313
-9.01536e-313
-4.76088e-313
-5.10986e-313
-3.571e-313
-7.10816e-313
-1.03815e-312
-7.10991e-313
-5.3633e-313
-2.32024e-313
-2.60245e-314
-5.56379e-313
-9.40151e-313
-8.67637e-313
-5.61866e-313
-1.76623e-313
-6.1762e-313
-1.02491e-312
-9.47903e-313
-1.3696e-312
-1.24717e-312
-9.08302e-313
-7.31293e-313
-4.54008e-313
-9.13368e-314
4.22202e-313
2.71542e-313
9.2918e-313
9.11401e-313
1.2056e-312
1.67578e-312
1.6104e-312
6.6888e-313
5.4803e-313
5.56708e-313
5.76417e-313
7.95774e-313
-5.27685e-313
-1.36547e-312
-9.8536e-313
-6.4173e-313
-1.64244e-313
-3.91021e-313
-5.30742e-313
-3.30588e-313
-2.64475e-313
-6.19307e-313
-1.05171e-312
-2.62443e-312
-2.31846e-312
-2.11376e-312
-2.63065e-312
-1.44522e-312
-9.73473e-313
1.12187e-312
6.13145e-313
-2.60022e-313
-4.20508e-313
-1.59897e-312
-7.16052e-313
-6.16309e-313
-1.43715e-312
-1.05359e-312
-7.33586e-313
5.36751e-313
5.02204e-313
1.184e-313
6.20724e-313
9.17617e-313
8.27704e-314
-4.08121e-313
-9.10061e-313
-1.23979e-312
-1.72528e-312
2.9764e-314
-5.28492e-313
-6.19104e-313
-6.81693e-313
-6.75177e-313
-9.43748e-313
-7.85837e-313
-9.8992e-313
-7.26422e-313
-7.48384e-313
-5.52328e-313
-5.96961e-313
-1.16551e-312
-6.75536e-313
-8.26943e-313
-4.72502e-313
-1.75406e-313
-6.47136e-313
-7.68208e-313
-7.75732e-313
-5.69837e-313
-3.44993e-313
-5.09486e-313
-8.00909e-313
-8.91867e-313
-1.23437e-312
-1.3985e-312
-7.48163e-313
-7.91339e-313
-7.50755e-313
-3.63704e-314
2.68046e-313
-4.98733e-314
8.17904e-313
8.58492e-313
1.37189e-312
1.87489e-312
1.68588e-312
7.18899e-313
3.45486e-313
3.84596e-313
4.08273e-313
9.80078e-313
5.26111e-314
-5.54966e-313
-9.51922e-313
-3.46648e-313
-3.4063e-313
-7.04081e-313
-1.2347e-312
-1.12651e-312
-1.22435e-312
-1.57853e-312
-1.27188e-312
-2.23088e-312
6.62925e-313
-2.58479e-313
-1.27864e-312
-1.17766e-312
-8.87261e-313
1.29461e-312
5.06183e-313
8.82609e-314
-1.62957e-313
-7.22234e-313
-9.65817e-313
-2.88276e-313
-1.2245e-312
-1.27105e-312
-1.00988e-312
4.31047e-313
6.99968e-313
4.70191e-313
6.09212e-313
5.24915e-313
5.74271e-314
-3.63732e-313
-8.11215e-313
-1.3268e-312
-1.73118e-312
-1.53932e-313
-4.42663e-313
-6.81232e-313
-6.94234e-313
-8.57558e-313
-1.00552e-312
-7.73654e-313
-9.49091e-313
-6.56023e-313
-7.36397e-313
-7.15035e-313
-4.80763e-313
-7.12121e-313
-7.34821e-313
-8.0282e-313
-7.81345e-313
-3.7283e-313
-8.46195e-313
-9.19835e-313
-8.66784e-313
-6.6071e-313
-2.72712e-313
-6.16664e-313
-9.46159e-313
-1.00539e-312
-1.4503e-312
-1.52126e-312
-7.50372e-313
-8.6932e-313
-8.1878e-313
-2.83642e-314
2.49885e-313
1.00388e-313
3.57181e-313
5.73855e-313
1.47287e-312
1.8854e-312
1.73811e-312
4.62453e-313
8.12955e-313
6.35786e-313
1.03901e-312
1.16535e-312
6.19795e-313
-1.90103e-313
-1.09701e-312
-8.43126e-313
1.61739e-313
-8.57383e-313
-8.34186e-313
-5.86839e-313
-1.25019e-312
-1.18248e-312
-1.25183e-312
-2.50545e-312
1.3438e-312
-2.39048e-313
-5.31306e-313
-6.58442e-313
-3.9577e-313
8.11607e-313
5.73706e-313
8.96277e-314
-2.17491e-313
-1.68349e-313
-1.29268e-312
4.05811e-314
-7.84026e-313
-6.95198e-313
-4.88148e-313
4.05398e-313
5.58182e-313
5.64606e-313
6.34635e-313
4.68639e-313
2.14017e-313
-3.52305e-313
-7.98989e-313
-1.37731e-312
-1.39662e-312
9.53761e-314
-1.19227e-313
-4.14754e-313
-5.49272e-313
-1.0204e-312
-9.93069e-313
-8.89698e-313
-7.51477e-313
-6.68171e-313
-6.7965e-313
-7.06752e-313
-5.85128e-313
-6.2951e-313
-1.05307e-312
-7.06001e-313
-1.1365e-312
-9.63129e-313
-9.20956e-313
-9.37248e-313
-1.07688e-312
-5.13088e-313
-2.06976e-313
-5.97008e-313
-8.39597e-313
-1.11714e-312
-1.38049e-312
-1.35389e-312
-8.38943e-313
-8.88311e-313
-7.21664e-313
-2.43376e-313
3.74708e-313
9.65867e-315
1.64404e-313
3.29542e-313
1.23598e-312
1.80409e-312
1.76413e-312
8.6826e-313
1.12938e-312
6.87948e-313
1.04235e-312
1.03479e-312
1.13881e-312
1.60333e-313
-5.13299e-313
-1.16066e-312
-1.34038e-313
-6.65452e-313
-1.40656e-312
-8.7928e-313
-1.16586e-312
-2.03116e-312
-2.12339e-312
-2.18246e-312
1.86421e-312
5.4144e-313
-7.36856e-313
-7.47615e-313
1.97843e-313
1.08946e-312
1.08009e-312
2.18718e-313
-3.32745e-313
1.33571e-313
-7.73321e-313
4.20178e-313
-6.81162e-313
-7.04834e-313
-2.38549e-313
7.8417e-314
2.01301e-313
9.55592e-313
1.06949e-312
5.68797e-313
2.6639e-313
-2.2116e-313
-8.87361e-313
-1.49849e-312
-1.35506e-312
1.10372e-313
-3.38135e-314
-4.31957e-313
-5.59474e-313
-9.59013e-313
-8.24991e-313
-9.59347e-313
-8.00174e-313
-6.78867e-313
-6.24441e-313
-7.20295e-313
-3.33376e-313
-4.19739e-313
-8.04324e-313
-6.89766e-313
-1.32529e-312
-8.7358e-313
-6.94706e-313
-7.65795e-313
-1.22766e-312
-6.16894e-313
-3.12724e-313
-6.78138e-313
-6.92322e-313
-1.34805e-312
-1.4867e-312
-1.34768e-312
-1.13597e-312
-9.31773e-313
-8.38562e-313
-2.22899e-313
5.58294e-314
-4.05513e-313
-2.03613e-313
1.36954e-313
9.57369e-313
1.67963e-312
1.8518e-312
1.18895e-312
1.17911e-312
1.15724e-312
1.22304e-312
1.41105e-312
1.34674e-312
1.59475e-312
-1.49776e-313
-1.44355e-312
-6.92958e-313
-1.37614e-313
-1.63899e-312
-8.99906e-313
-1.56921e-312
-2.79931e-312
-2.6702e-312
-2.36282e-312
1.21937e-312
9.89673e-313
-4.90166e-313
-7.74168e-313
3.20936e-313
1.65556e-313
1.28863e-312
1.23086e-313
-1.98289e-313
8.26608e-313
-3.8637e-313
1.25288e-312
3.30717e-313
-2.83417e-313
-4.84144e-314
1.20435e-313
1.5205e-313
1.09303e-312
1.09051e-312
-4.67598e-314
2.78815e-313
-8.82361e-314
-7.50585e-313
-1.29637e-312
-1.09839e-312
5.7066e-314
-2.4747e-313
-7.00512e-313
-6.63043e-313
-1.09519e-312
-7.88807e-313
-9.52056e-313
-8.95599e-313
-6.43865e-313
-4.30507e-313
-5.70121e-313
-2.18801e-313
-2.45212e-313
-3.0668e-313
-1.11815e-312
-1.18417e-312
-9.25642e-313
-6.34907e-313
-6.10111e-313
-1.31228e-312
-5.19872e-313
-4.36324e-313
-5.36202e-313
-7.07237e-313
-1.21776e-312
-1.72527e-312
-1.61452e-312
-1.36482e-312
-7.99446e-313
-6.27579e-313
-3.3309e-313
-4.16436e-314
-3.56041e-313
-6.77264e-313
1.79314e-313
1.23149e-312
1.91925e-312
1.91209e-312
1.57725e-312
1.46571e-312
1.4752e-312
1.42729e-312
1.67376e-312
1.40323e-312
1.3291e-312
5.31295e-313
2.67979e-313
-3.39856e-313
2.24653e-313
-8.56814e-313
-1.43589e-313
-3.57558e-313
-5.76976e-313
-3.36794e-313
-3.54182e-313
-3.87277e-315
6.41848e-313
6.05542e-313
4.94872e-313
7.33093e-313
8.54771e-313
2.08799e-312
7.81555e-313
7.2296e-313
1.1051e-312
3.38095e-313
5.41607e-313
2.23627e-313
-5.92568e-313
7.1365e-314
3.28933e-313
7.08961e-314
1.20179e-312
8.98475e-313
4.56147e-313
2.19193e-313
-1.10574e-313