/*--------------------------------*- C++ -*----------------------------------*\
  =========                 |
  \\      /  F ield         | OpenFOAM: The Open Source CFD Toolbox
   \\    /   O peration     | Website:  https://openfoam.org
    \\  /    A nd           | Version:  11
     \\/     M anipulation  |
\*---------------------------------------------------------------------------*/
FoamFile
{
    format      ascii;
    class       volScalarField;
    location    "100";
    object      C;
}
// * * * * * * * * * * * * * * * * * * * * * * * * * * * * * * * * * * * * * //

dimensions      [0 0 0 1 0 0 0];

internalField   nonuniform List<scalar> 
332800
(
-8.11745e-315
1.34526e-314
-2.25942e-315
-9.55245e-314
-3.40284e-314
-7.12129e-314
-7.74661e-314
-3.83408e-314
-9.63273e-315
3.05147e-315
-8.28746e-315
-1.66363e-315
-2.728e-316
-3.80878e-317
-2.57874e-317
-1.00193e-317
-2.75475e-318
-1.22406e-318
-3.24567e-319
-9.15306e-320
-2.69463e-320
-1.18576e-320
-5.14322e-321
-1.57607e-321
-3.95253e-323
-1.08694e-322
-1.4822e-323
-4.94066e-324
4.94066e-324
0
0
0
0
0
0
0
0
0
0
0
0
0
4.94066e-324
1.97626e-323
4.44659e-323
2.91499e-322
-1.72923e-322
-1.89227e-321
-7.76671e-321
-2.80975e-320
-7.91938e-320
-4.78354e-320
1.58059e-318
1.61739e-317
1.1042e-316
5.92336e-316
2.34141e-315
-6.57615e-315
-2.76514e-314
-1.18528e-313
1.51278e-314
2.66699e-314
2.04463e-314
-5.52851e-314
-4.10585e-314
-1.52104e-313
-5.63801e-314
5.95846e-314
4.31931e-314
-8.10165e-314
-4.317e-314
6.97552e-314
-5.52629e-314
-7.05477e-314
1.01839e-313
1.31124e-313
-1.69916e-314
-6.31454e-314
3.13376e-314
2.07152e-314
-4.61879e-313
-2.85656e-313
-1.53751e-313
3.77219e-314
-8.32608e-315
6.56189e-314
2.79346e-314
-1.11176e-313
-1.00953e-314
-1.09737e-313
-1.46237e-315
-1.33508e-314
-6.16462e-316
4.49522e-316
-7.59666e-316
-3.74748e-316
-1.0714e-316
-5.06788e-317
-1.3505e-317
-3.79617e-318
-1.11155e-318
-4.81852e-319
-2.04192e-319
-5.61753e-320
-8.91788e-321
-2.37646e-321
-6.96633e-322
-2.71736e-322
-4.44659e-323
-4.94066e-324
9.88131e-324
0
-4.94066e-324
0
0
0
0
0
0
0
0
0
3.45846e-323
1.13635e-322
-5.78057e-322
-1.40315e-321
-7.52956e-321
-3.90065e-320
-1.85729e-319
-8.06597e-319
-3.1e-318
-9.46321e-318
-1.18436e-317
1.34188e-316
1.65499e-315
1.28736e-314
8.44182e-314
-1.08313e-313
-5.22836e-315
5.82968e-314
-5.99455e-314
-1.19442e-314
-6.40843e-314
-1.77619e-314
-2.49664e-313
-4.57233e-313
-8.34885e-314
-5.86512e-314
-4.81656e-314
-1.63261e-313
-2.01461e-313
-1.56747e-313
-1.09852e-313
-8.88281e-314
2.03026e-313
3.17221e-313
7.70441e-314
-3.89871e-314
-7.6316e-314
-1.49938e-313
-1.37063e-312
-8.01066e-313
-5.08019e-313
1.9049e-313
1.35441e-313
-1.05664e-313
-8.98643e-314
-2.75272e-313
-3.67335e-313
-5.07686e-314
-2.54795e-313
-4.09011e-314
2.10443e-314
1.8305e-314
1.2339e-314
-4.85774e-315
-1.64752e-315
-1.52738e-315
-4.24896e-316
-1.27752e-316
-3.94292e-317
-1.88149e-317
-8.39908e-318
-2.31122e-318
-3.87436e-319
-9.26175e-320
-2.10126e-320
-4.6541e-321
-8.34971e-322
-4.19956e-322
-5.92879e-323
1.4822e-323
-9.88131e-324
-4.94066e-324
4.94066e-324
0
0
0
0
0
1.4822e-323
1.97626e-323
2.17389e-322
-5.2865e-322
-3.08791e-321
-1.93773e-320
-1.09243e-319
-5.86999e-319
-2.99996e-318
-1.47146e-317
-6.95384e-317
-3.18136e-316
-1.41513e-315
-6.14338e-315
-2.56982e-314
-3.43821e-314
-1.62086e-313
-6.15677e-314
5.30107e-314
-1.02419e-313
-9.49075e-314
4.52443e-314
1.11509e-313
2.31872e-313
4.11008e-314
-4.31568e-313
-2.38393e-313
-2.52461e-313
-1.47355e-313
1.34992e-313
6.8175e-314
9.55026e-314
-5.94092e-314
1.88758e-313
3.5418e-313
7.26964e-313
3.51803e-313
-8.56189e-314
-2.07399e-313
-7.01614e-313
-1.31858e-312
-7.91778e-313
-5.49222e-313
-1.67343e-313
3.90811e-313
2.08221e-313
3.40282e-314
-2.71329e-313
-2.01185e-313
-9.86525e-314
-4.08345e-313
-3.12748e-313
-2.05359e-313
-2.05545e-313
-2.94325e-313
-1.74353e-313
-7.81894e-314
-2.53516e-314
-6.23874e-315
-2.1452e-315
-7.86492e-316
-5.9888e-316
-3.21057e-316
-9.05633e-317
-1.40428e-317
-3.39177e-318
-7.69117e-319
-1.70502e-319
-3.61755e-320
-7.46533e-321
-1.33398e-321
4.94066e-324
-4.94066e-323
4.94066e-324
-1.97626e-323
0
4.94066e-324
0
0
0
4.44659e-323
-2.32211e-322
-9.14021e-322
-4.25391e-321
-2.72033e-320
-1.64731e-319
-9.30217e-319
-4.94875e-318
-2.48291e-317
-1.17703e-316
-5.27803e-316
-2.24019e-315
-8.9995e-315
-3.78887e-314
-7.74347e-314
-2.93057e-313
-3.23126e-313
-1.7744e-313
-6.96547e-314
1.20488e-313
1.40963e-313
1.66211e-314
7.25844e-314
2.81882e-313
-2.4753e-314
-4.9206e-313
-2.95566e-313
-1.01364e-313
-1.80343e-314
3.41802e-313
1.50697e-313
-9.57664e-315
-5.78173e-313
-6.14479e-313
-3.39384e-313
2.70228e-313
2.25025e-313
3.80501e-313
1.08065e-313
-1.11302e-312
-1.10724e-312
-8.3883e-313
-3.26289e-313
-2.46737e-313
-9.5933e-314
1.27549e-313
1.78554e-313
-5.69853e-314
-4.50791e-315
-1.13622e-313
-3.14434e-313
-2.20902e-313
-3.33828e-313
-2.07715e-313
-2.97767e-313
-1.24943e-313
-7.50323e-314
-1.5373e-313
-6.10212e-314
-2.65835e-314
-1.31904e-314
-2.18108e-314
-1.36009e-314
-3.83831e-315
-5.25615e-316
-1.24253e-316
-2.74093e-317
-5.97128e-318
-1.2511e-318
-2.40813e-319
-4.16053e-320
-5.62741e-321
-5.92879e-322
-9.88131e-324
2.96439e-323
2.47033e-323
-1.97626e-323
-4.94066e-324
4.94066e-324
2.96439e-323
-2.32211e-322
-5.92879e-322
-3.26083e-321
-2.17883e-320
-1.42849e-319
-8.69368e-319
-4.9815e-318
-2.70254e-317
-1.39331e-316
-6.84455e-316
-3.21068e-315
-1.44074e-314
-2.37673e-314
-8.9709e-314
1.84418e-314
-3.44901e-313
-1.40856e-313
-1.95305e-313
5.38179e-314
8.82689e-314
3.24811e-313
1.15084e-313
-6.12924e-314
8.89519e-314
-5.69813e-314
-3.8131e-313
-4.48785e-313
-2.51697e-313
-6.1214e-314
2.34955e-313
-3.61232e-314
-1.68665e-313
-4.37675e-313
-1.08273e-312
-1.47547e-312
-1.55817e-312
-1.02621e-312
-1.74203e-313
2.84036e-314
-1.39773e-312
-8.48103e-313
-1.01077e-312
-7.09947e-313
-3.59714e-313
-3.46565e-313
8.54682e-314
1.80884e-313
-3.38073e-314
1.72339e-314
-7.77548e-314
-2.02348e-313
-3.02779e-313
-3.66076e-313
-3.4589e-313
-4.31381e-313
-1.37295e-313
-8.17565e-314
-1.11436e-313
-2.45886e-313
-2.34105e-313
-8.12704e-314
-1.29349e-313
-3.92454e-314
-9.85785e-315
2.42129e-314
7.06392e-315
1.97308e-315
5.06677e-316
1.22487e-316
2.8404e-317
6.31199e-318
1.32741e-318
2.63969e-319
4.9955e-320
8.74496e-321
1.3241e-321
2.71736e-322
4.94066e-323
4.94066e-323
2.86558e-322
-1.18576e-322
-1.34386e-321
-1.11511e-320
-6.85417e-320
-3.81606e-319
-1.93074e-318
-8.86212e-318
-3.67783e-317
-1.36173e-316
-4.34165e-316
-1.06921e-315
-1.62158e-315
1.38155e-314
-7.54155e-314
-2.7109e-314
-2.60913e-313
-8.59806e-314
-1.21436e-314
1.68776e-314
1.25769e-313
3.26454e-313
2.43158e-313
-2.31282e-313
-1.17972e-314
1.25979e-313
-2.03011e-313
-3.66672e-313
-4.75594e-314
2.90737e-313
1.13542e-312
9.1119e-313
1.01463e-312
1.06047e-312
8.54659e-313
3.90144e-313
-1.41097e-313
-5.11721e-313
-1.55763e-313
-7.83495e-314
-7.90568e-313
-5.20576e-313
-9.26533e-313
-5.24586e-313
-1.77305e-313
-1.41121e-313
2.65081e-313
2.09338e-313
-3.47405e-314
-5.62803e-314
2.11078e-314
4.59642e-314
8.23796e-314
-7.95772e-315
-1.69379e-313
-1.1801e-313
-8.15307e-314
-2.45353e-313
1.91157e-314
-2.40627e-313
-6.05284e-314
-7.12233e-314
-2.89235e-313
-1.48648e-313
-2.11691e-313
-7.02199e-314
7.56802e-315
8.81072e-315
2.88729e-315
7.55246e-316
1.94158e-316
4.91638e-317
1.14504e-317
2.51612e-318
5.14732e-319
9.7657e-320
1.73368e-320
3.35965e-321
7.90505e-322
3.26083e-322
-9.88131e-323
-8.49793e-322
-1.02074e-320
-7.7262e-320
-5.13285e-319
-3.12799e-318
-1.75625e-317
-9.18199e-317
-4.51187e-316
-2.10123e-315
-9.34391e-315
-3.3275e-314
-6.10385e-314
-1.39574e-313
-2.37439e-313
-4.90571e-314
-1.16735e-313
-8.62726e-315
-3.90619e-314
-1.42615e-313
1.58577e-314
4.04185e-313
3.77131e-313
-1.00382e-313
1.88606e-313
5.42664e-313
-1.53077e-314
-5.35435e-313
-8.15132e-313
-6.09712e-313
-6.64259e-314
7.74223e-314
8.63585e-313
1.31011e-312
1.66228e-312
2.95916e-312
2.09746e-312
1.72941e-312
1.44311e-312
7.77295e-313
1.00033e-312
-5.46057e-313
-7.50773e-313
-6.07506e-313
-6.3708e-315
4.06265e-313
2.69276e-313
3.96346e-313
1.85191e-313
-6.47271e-314
-4.25764e-314
1.21512e-313
-1.42424e-313
-1.62153e-313
-2.02532e-313
-4.51656e-313
-2.78503e-313
-5.12334e-313
-2.03401e-313
-3.06347e-313
1.03822e-314
-1.75299e-313
-4.26306e-313
-3.00697e-313
-4.19565e-313
-9.4599e-314
-1.55408e-313
-1.09385e-313
-1.41106e-314
-5.68769e-315
-1.55036e-315
-2.95015e-316
-6.11138e-317
-1.09714e-317
-1.84049e-318
-2.72438e-319
-3.31271e-320
-2.70254e-321
3.55727e-322
5.92879e-323
-5.82997e-322
-4.26379e-321
-3.6882e-320
-2.73169e-319
-1.77857e-318
-1.03517e-317
-5.40737e-317
-2.53206e-316
-1.05233e-315
-3.77029e-315
-1.08991e-314
-6.26327e-314
-2.33717e-313
-1.71271e-313
-1.22089e-313
-1.04656e-313
-1.53577e-313
-1.14199e-313
-1.81682e-313
-4.94552e-313
-2.91032e-313
-2.70292e-313
-3.24922e-313
-6.62407e-313
-3.19805e-313
-2.24027e-313
-1.68194e-313
-2.12768e-313
-5.9463e-313
-1.09132e-312
-1.28729e-312
-1.49882e-312
-1.17972e-312
-1.75446e-312
-1.18536e-312
1.47568e-312
2.02562e-312
1.6045e-312
1.86101e-312
1.77073e-312
2.94025e-312
-1.33781e-312
-1.35071e-312
-5.35786e-313
-3.1606e-313
4.19411e-313
6.08986e-313
5.91883e-313
1.56473e-313
-5.898e-314
5.63203e-314
1.35966e-314
-1.42325e-313
9.74865e-314
1.00184e-313
-2.25274e-313
-5.77229e-314
-4.80799e-313
-2.0507e-313
-1.46964e-313
-1.13863e-313
-2.09943e-313
-3.61738e-313
-3.47565e-313
-5.59526e-313
-4.34914e-313
-7.81376e-314
-9.70114e-314
-4.20789e-314
-4.88046e-314
-2.82761e-314
-5.18245e-315
-1.38666e-315
-2.97204e-316
-6.23533e-317
-1.18941e-317
-2.01256e-318
-3.08727e-319
-4.25489e-320
-5.59776e-321
-2.30235e-321
-1.70008e-320
-1.54519e-319
-1.22859e-318
-8.96816e-318
-6.09407e-317
-3.88037e-316
-2.32395e-315
-1.31224e-314
-6.76417e-314
-6.46103e-314
-8.13438e-314
-3.70515e-313
1.29632e-314
-1.85095e-313
-2.06548e-313
-2.21422e-313
-1.08297e-313
-1.00784e-313
-8.56786e-315
5.46446e-314
6.65604e-314
1.87952e-314
-1.5302e-313
-3.85388e-313
-3.43311e-313
1.89089e-314
1.91011e-313
4.18061e-313
2.72285e-313
9.85621e-314
-5.20187e-313
-1.15117e-312
-2.21518e-312
-3.73808e-312
-2.31594e-312
-1.26894e-312
-1.72841e-312
-4.72691e-313
1.64406e-312
3.3465e-312
-1.20684e-312
-1.12443e-312
-5.92206e-313
-7.82429e-313
1.03989e-313
6.18015e-313
8.0649e-313
3.87445e-313
8.09074e-314
4.49853e-313
5.92486e-314
-1.82205e-313
-4.89586e-314
2.40232e-313
-8.14914e-314
-3.12324e-313
-2.56077e-313
-8.72263e-314
3.19464e-316
-6.498e-314
-2.32738e-313
-3.38416e-313
-2.89751e-313
-5.60997e-313
-5.95854e-313
-6.29004e-314
-8.16089e-314
8.48663e-314
3.87776e-314
-3.39705e-314
-5.17014e-314
-2.25117e-314
-4.90528e-315
-1.1423e-315
-2.32254e-316
-3.982e-317
-6.22869e-318
-8.77214e-319
-1.09796e-319
-1.83842e-320
-5.03898e-320
-2.19128e-319
1.49331e-319
1.44739e-317
1.77136e-316
1.52175e-315
1.08033e-314
-6.68865e-315
2.91792e-314
-7.56958e-314
-7.91288e-314
-2.81208e-313
3.91493e-314
-2.51287e-313
-8.64198e-314
3.36836e-314
5.13857e-313
5.52111e-313
7.91599e-313
1.3342e-312
1.46233e-312
1.53401e-312
1.46001e-312
1.32659e-312
9.8014e-313
4.514e-313
5.20214e-313
1.0768e-312
1.9025e-312
1.73838e-312
2.18951e-312
1.85183e-312
9.08978e-313
-9.33895e-313
-1.24981e-312
-1.71399e-312
-2.2812e-312
-1.07727e-312
-1.86061e-313
8.16409e-313
-4.1335e-313
-7.84997e-313
-3.86537e-313
-3.90188e-314
-1.04168e-313
7.76976e-313
8.92183e-313
8.00555e-313
2.84337e-313
3.03765e-313
2.3112e-313
1.1956e-313
-2.20563e-314
3.95726e-313
2.12529e-313
-5.63859e-314
-4.19615e-313
-1.40293e-313
-7.32433e-314
-2.29381e-313
-2.49909e-313
-3.48666e-313
-1.0655e-313
-3.89614e-313
-4.31183e-313
-2.16599e-313
-4.62048e-314
-3.35239e-314
-2.15221e-313
-4.65437e-314
-1.46124e-313
-5.15174e-314
-1.75848e-314
-1.17065e-314
-3.15935e-315
-5.41578e-316
-8.46939e-317
-1.19444e-317
-1.50159e-318
-2.70758e-319
-1.21117e-318
-1.07699e-317
-8.3524e-317
-5.72322e-316
-3.52949e-315
-1.98938e-314
-5.19904e-315
-1.93213e-313
-1.55665e-313
-1.30975e-313
3.99505e-314
-1.18983e-313
8.85704e-314
-1.10265e-315
-1.09341e-313
4.50557e-315
-2.45543e-314
-1.37617e-313
-1.39656e-315
1.16456e-313
-1.60945e-313
-3.33922e-313
-2.84448e-313
6.50671e-313
1.59624e-312
7.6907e-313
1.84912e-313
1.87326e-313
6.25445e-313
1.14452e-312
2.23697e-312
2.96468e-312
3.14932e-312
3.51255e-312
3.10236e-312
2.2018e-312
6.77446e-313
9.32672e-313
6.07218e-313
6.14185e-313
3.16982e-313
1.53434e-313
4.34084e-313
6.69485e-313
2.5835e-313
6.33221e-313
8.32974e-313
7.87827e-313
3.21303e-313
3.15944e-313
4.73527e-313
3.27818e-313
-6.14102e-314
7.0897e-314
4.70208e-313
2.57537e-313
-3.82213e-313
-3.01023e-313
-2.24725e-313
-2.00299e-313
-2.99815e-313
-2.80986e-313
-3.11631e-313
-3.51425e-313
-5.03914e-313
-3.61273e-313
-9.87352e-314
5.32723e-314
-1.22558e-313
-5.32065e-314
-3.01486e-313
-1.55682e-313
-5.06942e-314
-2.18339e-314
-5.19733e-314
-8.67432e-315
-1.31722e-315
-1.80727e-316
-2.20534e-317
-2.72479e-318
-4.72769e-318
-4.24006e-317
-3.40212e-316
-2.38636e-315
-1.48186e-314
-8.62644e-314
-1.17371e-313
-3.48951e-313
-7.63333e-314
-1.61058e-313
-5.80483e-314
-1.36883e-313
8.1963e-315
-4.16802e-314
-2.71863e-313
-4.9176e-313
-5.65419e-313
-1.1811e-312
-1.04737e-312
-1.52692e-312
-1.813e-312
-2.72489e-312
-3.3368e-312
-2.76105e-312
-1.02758e-312
-1.28248e-312
-1.32174e-312
-9.24402e-313
-1.01382e-312
-1.04871e-312
-2.17059e-312
-1.18737e-312
8.30912e-315
1.72235e-312
3.1214e-312
3.79206e-312
2.4659e-312
3.51783e-312
4.08388e-312
2.52355e-312
6.09065e-313
8.34948e-313
1.19609e-312
1.04332e-312
9.91275e-313
8.06613e-313
1.18111e-312
6.4959e-313
4.75989e-313
5.11694e-313
5.04213e-313
1.37674e-313
2.54327e-313
1.8074e-313
4.46916e-313
4.12642e-313
-2.90781e-313
-4.73653e-313
-3.87794e-313
-2.26772e-313
-4.45049e-313
-4.03567e-313
-4.37645e-313
-6.13609e-313
-6.54358e-313
-5.10681e-313
-2.77134e-313
-5.7195e-314
-2.19678e-313
-2.27028e-313
-2.40201e-313
-9.57651e-314
-1.51279e-313
-6.07362e-314
-9.50447e-314
-2.39177e-314
-4.38266e-315
-6.98036e-316
-9.6278e-317
-1.23178e-317
-1.45159e-317
-1.47836e-316
-1.41073e-315
-1.19532e-314
-9.13837e-314
-1.29371e-313
-1.65828e-313
-2.03816e-313
-2.43764e-313
-2.6308e-313
-2.20683e-313
-1.62029e-313
9.32086e-315
-1.18737e-313
-2.18445e-313
-1.3125e-313
1.76413e-313
3.27561e-313
5.27824e-313
9.11245e-313
8.90369e-313
9.93467e-314
-1.75188e-312
-2.22038e-312
-2.15658e-312
-2.18269e-312
-1.44356e-312
-1.1456e-312
-8.3879e-313
-1.72243e-312
-3.79329e-312
-4.27756e-312
-3.80382e-312
-2.64396e-312
-1.44704e-312
1.38145e-312
9.47217e-313
2.29451e-312
3.41924e-312
2.61753e-312
2.64633e-312
1.39454e-312
1.30635e-312
1.11042e-312
1.02858e-312
1.38081e-312
1.03963e-312
8.0774e-313
7.37282e-313
6.71953e-313
7.91246e-313
2.55656e-313
3.25096e-313
3.26271e-313
5.26321e-313
6.55172e-313
-3.85947e-314
-4.12763e-313
-3.20973e-313
-4.23845e-313
-1.91126e-313
-5.50318e-313
-5.35862e-313
-8.4586e-313
-7.87459e-313
-7.52785e-313
-3.38725e-313
-1.34951e-313
-2.71716e-314
-2.72559e-314
-1.68908e-313
-2.38871e-313
-1.29771e-313
-1.0021e-314
-5.60197e-314
-1.58113e-313
-2.49892e-314
-3.6251e-315
-4.74174e-316
-5.10784e-317
4.1433e-317
5.16234e-316
4.95217e-315
4.19989e-314
-7.14923e-314
6.119e-314
-3.51126e-314
-2.04593e-313
-3.93775e-313
-1.90914e-313
-1.58718e-313
-8.94568e-314
1.15977e-313
1.30804e-313
2.12616e-314
1.59379e-313
9.33409e-313
1.63646e-312
2.07761e-312
2.86968e-312
3.5272e-312
3.58427e-312
3.29501e-312
2.91412e-312
1.5507e-312
4.87729e-313
9.33606e-314
5.08736e-313
9.69526e-313
8.98656e-313
-4.65793e-314
-1.75585e-312
-2.48271e-312
-3.18232e-312
-2.58193e-312
-1.27857e-312
-8.56759e-313
7.95723e-314
6.88397e-313
1.30249e-312
4.22062e-312
3.07087e-312
2.17556e-312
1.54656e-312
1.20397e-312
1.16616e-312
1.50896e-312
1.00287e-312
6.32841e-313
8.1795e-313
1.04446e-312
7.81761e-313
5.76375e-313
3.45055e-313
3.26824e-313
4.13837e-313
4.19544e-314
-7.37254e-314
-2.15314e-313
-4.60347e-313
-2.48332e-313
-5.09602e-313
-7.81337e-313
-7.89204e-313
-7.39606e-313
-7.98813e-313
-5.21096e-313
6.59883e-315
4.36097e-314
1.09548e-313
-2.47537e-313
-2.6435e-313
-1.81519e-313
-8.02957e-314
4.2214e-314
-2.39839e-313
-5.61196e-314
-9.59835e-315
-1.40898e-315
-1.8736e-316
-1.43e-316
-1.19816e-315
-9.91794e-315
-7.20923e-314
7.84469e-314
1.45674e-313
-1.51978e-313
-2.21834e-313
-3.0395e-313
-2.31974e-313
-1.7801e-313
-1.8855e-313
7.20473e-314
-3.46523e-314
-2.10661e-313
-5.71583e-313
-5.04832e-313
-2.72731e-313
-3.21102e-313
-5.55515e-313
-4.41088e-313
2.54862e-313
2.22805e-312
3.7871e-312
3.85043e-312
2.65919e-312
1.35734e-312
1.4624e-312
2.273e-312
2.67518e-312
3.72949e-312
2.26579e-312
1.3951e-312
6.17344e-313
3.37278e-313
-3.40959e-313
-2.35774e-313
-4.93778e-313
-7.28006e-314
5.51973e-313
1.81891e-312
1.10535e-312
1.75516e-312
1.58125e-312
1.64414e-312
1.65989e-312
1.06257e-312
5.81246e-313
8.00681e-313
5.95731e-313
7.98382e-313
1.09559e-312
7.47404e-313
4.58823e-313
6.83098e-313
4.75219e-313
1.9166e-313
-9.68115e-314
-1.17101e-313
-5.03652e-313
-5.78063e-313
-6.13071e-313
-8.62336e-313
-5.93954e-313
-8.30643e-313
-7.10413e-313
-5.2617e-313
1.34001e-314
1.735e-313
-3.002e-314
-4.45711e-313
-3.0969e-313
-3.10372e-313
-1.75828e-313
-3.40975e-315
-4.2825e-314
7.77145e-314
1.1066e-315
-1.04924e-315
-2.92009e-316
-6.74666e-316
-7.01545e-315
-6.74608e-314
-1.4507e-313
-8.31636e-314
-5.77287e-314
-3.83512e-313
-2.83043e-313
-2.74741e-313
-1.4843e-313
-4.02441e-313
-1.1589e-313
2.57969e-313
7.09176e-313
3.2362e-313
-1.74692e-314
-2.75428e-313
-5.1876e-313
-8.9757e-313
-2.34411e-312
-3.61655e-312
-5.14353e-312
-4.58588e-312
-1.98663e-312
2.97785e-313
1.56002e-312
3.23485e-313
-4.29619e-313
3.81294e-313
4.5867e-313
1.76856e-312
2.02605e-312
1.94828e-312
9.53678e-313
7.90366e-313
3.10509e-314
-1.71575e-313
-4.46576e-314
-5.72256e-313
1.09077e-312
4.09878e-314
6.96885e-313
1.17939e-312
7.09378e-313
1.33912e-312
1.4311e-312
9.80597e-313
7.23213e-313
1.06289e-312
7.62503e-313
7.92023e-313
8.77131e-313
9.78471e-313
8.88246e-313
7.95569e-313
2.89639e-313
3.91688e-313
-4.0969e-314
-1.28454e-313
-4.67598e-313
-4.89533e-313
-8.11888e-313
-6.7232e-313
-5.62384e-313
-5.43526e-313
-6.94578e-313
-5.84758e-313
-6.53059e-314
1.71547e-313
6.81169e-314
-3.65926e-313
-3.35701e-313
-2.62762e-313
-2.38137e-313
1.06743e-314
8.3114e-316
-7.08844e-314
-6.87912e-315
-1.55375e-315
-3.39136e-316
-1.75959e-316
-2.9272e-315
-3.86044e-314
-2.22149e-313
7.41272e-315
-6.95884e-314
-5.54011e-313
-2.97477e-313
-1.7317e-313
-1.50546e-313
-3.57506e-313
-2.80246e-314
2.00355e-313
5.64574e-313
6.95625e-313
6.66083e-313
1.28459e-312
1.69513e-312
1.76429e-312
1.84861e-312
8.34122e-313
-2.71532e-312
-4.8467e-312
-4.86936e-312
-2.52542e-312
-2.91357e-313
-2.3361e-313
-1.29643e-312
-1.62217e-312
-2.0676e-312
-1.52869e-312
-1.59251e-312
-1.82582e-312
-1.01336e-312
-1.03822e-312
-6.80064e-313
-5.79108e-313
8.03213e-314
-2.81422e-313
4.13651e-315
-8.55334e-313
-7.61595e-313
5.11537e-313
5.04359e-314
1.01713e-312
5.73584e-313
8.04737e-313
4.22481e-313
6.91479e-313
1.05275e-312
8.15376e-313
9.78179e-313
1.10756e-312
9.89731e-313
5.74872e-313
9.79924e-314
2.66001e-313
2.05289e-313
-2.13766e-313
-4.21925e-313
-4.40442e-313
-8.87467e-313
-6.71091e-313
-4.81968e-313
-7.7566e-313
-5.91661e-313
-8.6784e-313
-7.62003e-314
-3.70414e-314
7.78952e-315
-2.99488e-313
-4.90605e-313
-4.6379e-313
-2.45101e-313
-3.02232e-313
-1.25881e-313
-1.27294e-313
-1.65101e-314
-2.97704e-315
1.12396e-318
6.77538e-315
7.99207e-314
6.28262e-314
-1.72047e-313
1.72964e-314
1.76172e-313
-4.8456e-313
-9.16143e-314
-7.76825e-314
-1.78901e-313
-2.21306e-313
-2.41161e-313
-2.60403e-313
2.20747e-314
-2.88591e-313
-2.49203e-313
-1.16426e-313
6.99167e-313
1.58848e-312
3.14076e-312
4.45884e-312
3.13589e-312
2.1199e-313
-1.59635e-312
-1.11898e-312
-5.42989e-313
5.74315e-313
3.17156e-313
-1.04148e-313
-7.37268e-313
-1.3087e-312
-1.4213e-312
-1.24798e-312
-5.35721e-313
-3.93362e-314
-7.39983e-313
-5.01959e-313
-5.38811e-313
-2.52643e-313
-1.11836e-312
-9.89837e-313
-8.97233e-313
3.5674e-313
-4.80242e-315
1.21236e-313
9.05864e-313
1.09858e-313
9.51626e-314
4.14516e-313
5.68595e-313
1.05455e-312
1.08886e-312
1.13076e-312
9.42713e-313
9.4884e-313
3.35441e-313
4.79536e-313
1.22232e-313
2.42674e-314
-3.95422e-313
-4.05169e-313
-9.06888e-313
-1.0271e-312
-5.88807e-313
-5.53415e-313
-5.26193e-313
-8.12894e-313
-3.81494e-313
-1.09449e-313
1.66631e-313
-1.0766e-313
-5.55447e-313
-7.72612e-313
-2.92319e-313
-4.01717e-313
-1.40131e-313
-2.1868e-313
-4.30456e-315
-9.20064e-315
2.09331e-316
-4.60895e-315
-5.28996e-314
-1.90374e-315
-1.41417e-313
-9.12924e-314
1.61259e-313
-2.83256e-313
-3.62039e-314
-1.8895e-313
-2.04531e-313
-1.87804e-313
-2.82223e-313
5.51643e-314
2.92491e-313
-2.40098e-313
-8.30705e-313
-1.46897e-312
-1.83652e-312
-1.64457e-312
-7.70569e-313
1.58221e-312
2.3395e-312
2.83105e-312
1.77805e-312
6.88801e-313
-1.39932e-313
7.0204e-313
9.94107e-313
2.20333e-312
2.26994e-312
1.98328e-312
2.37432e-312
1.97217e-312
2.17029e-312
1.59023e-312
1.33068e-312
8.72765e-313
6.45642e-314
-5.68599e-313
-1.45615e-312
2.6082e-314
-7.42199e-313
2.30803e-313
3.59521e-313
8.84865e-313
1.17845e-312
1.10905e-313
-2.26302e-314
6.04927e-313
6.88203e-313
1.31655e-312
9.65002e-313
1.56253e-312
1.04728e-312
6.68984e-313
1.36853e-313
4.34692e-313
-7.11622e-314
-1.26239e-313
-3.74483e-313
-6.31398e-313
-8.41585e-313
-1.06269e-312
-5.51458e-313
-3.65568e-313
-5.57942e-313
-5.88749e-313
-2.97424e-313
-2.06018e-313
1.59022e-313
8.39208e-315
-4.94136e-313
-7.16993e-313
-4.70307e-313
-5.14454e-313
-1.37935e-313
-3.18309e-313
-1.01425e-313
-2.18483e-314
8.8115e-314
-3.00578e-314
-1.45463e-313
7.85431e-315
-1.26309e-314
2.76676e-314
6.66708e-314
-2.53944e-313
-1.25819e-313
-2.36924e-313
-2.27956e-313
-2.18313e-313
-2.14266e-314
5.43061e-313
8.23638e-313
8.27141e-313
2.9434e-313
-3.21351e-313
-4.80935e-313
-1.85129e-312
-2.2082e-312
-2.2307e-312
-1.89961e-312
-4.32182e-314
1.42169e-312
1.03381e-312
2.12317e-313
-4.38178e-313
-8.5366e-313
3.48366e-313
1.53424e-312
1.94446e-312
2.59826e-312
1.82506e-312
1.88001e-312
2.04607e-312
1.38621e-312
3.67558e-313
8.39795e-313
1.42058e-313
4.88647e-313
-2.27528e-313
-1.52466e-312
-1.48472e-312
1.14274e-313
2.4297e-313
1.57644e-312
3.12448e-313
2.42905e-313
9.53507e-313
7.73061e-313
1.36906e-312
7.14972e-313
1.4994e-312
1.12016e-312
6.63181e-313
2.64444e-313
5.77698e-313
2.75166e-313
-1.06146e-313
-1.9057e-313
-6.53477e-313
-6.78326e-313
-8.52861e-313
-3.78021e-313
-2.39029e-313
-2.77211e-313
-6.37557e-313
-4.968e-313
-3.53314e-313
7.69827e-314
2.2748e-313
-3.10259e-313
-7.1336e-313
-4.2415e-313
-7.85404e-313
-3.27768e-313
-3.53423e-313
3.20863e-315
-7.85405e-314
2.91041e-314
-2.65307e-315
-2.13806e-313
-1.28128e-313
-5.30046e-314
-2.77732e-314
-9.13602e-314
-3.05451e-313
1.22725e-315
-1.83428e-313
-6.85884e-314
-2.40631e-313
-4.87562e-315
5.27395e-314
4.91235e-313
1.01081e-312
1.0012e-312
9.4839e-313
1.24205e-312
4.62452e-313
5.72245e-314
-1.15624e-312
-2.35892e-312
-1.75556e-312
6.54754e-314
9.15691e-313
3.2974e-313
-7.09923e-313
-2.31064e-312
-2.21255e-312
-1.44051e-312
-1.10667e-312
-5.77329e-313
-1.23414e-312
-1.02495e-312
-8.05305e-313
-1.89901e-312
-2.48148e-312
-1.78629e-312
-1.46348e-312
-2.96194e-313
-1.65526e-312
-2.18472e-312
-1.30502e-312
-6.61325e-313
8.94218e-313
9.50994e-313
2.30702e-313
6.1658e-313
1.03803e-312
8.11365e-313
1.14182e-312
7.8285e-313
1.40651e-312
1.51383e-312
1.09093e-312
4.47768e-313
6.68139e-313
1.81e-313
-8.20753e-314
-4.03915e-313
-5.52488e-313
-6.48983e-313
-6.83038e-313
-2.96778e-313
-2.50912e-313
-1.7708e-313
-5.12119e-313
-4.15672e-313
-5.31283e-313
-2.77831e-315
1.04755e-313
-1.19619e-313
-6.83856e-313
-4.73274e-313
-9.45458e-313
-4.31938e-313
-4.61487e-313
8.8078e-315
-1.16078e-313
-4.72647e-314
-6.83086e-314
-2.71742e-313
-9.70321e-314
-7.45872e-314
-2.1619e-313
-2.16216e-313
-7.91925e-314
2.11477e-314
-7.43657e-314
-4.07622e-314
-1.40624e-313
-4.25187e-313
-4.60011e-313
-3.27113e-313
1.22193e-313
6.85111e-314
1.41718e-313
5.38184e-313
4.97554e-313
1.19497e-312
1.20385e-312
-5.37878e-313
-8.21416e-313
-5.43572e-313
7.86995e-314
1.9493e-313
-7.92625e-314
-1.3886e-312
-1.42599e-312
-1.69022e-312
-2.04279e-312
-2.42524e-312
-3.0846e-312
-2.66447e-312
-2.56843e-312
-2.25619e-312
-2.69736e-312
-1.00753e-312
-5.85191e-314
5.09032e-313
-8.15217e-313
-6.77932e-313
-3.79116e-313
4.01389e-313
8.48285e-313
7.61043e-313
4.02e-313
2.28193e-313
6.70638e-313
6.22404e-313
7.70036e-313
8.1599e-313
1.36605e-312
1.52794e-312
1.43252e-312
4.32124e-313
8.73879e-313
3.75271e-313
-1.87166e-313
-3.10318e-313
-3.25662e-313
-6.3512e-313
-7.68164e-313
-4.89982e-313
-2.66317e-313
1.48237e-313
-4.37716e-313
-6.25166e-313
-3.65188e-313
-4.84727e-315
1.25064e-313
-1.8733e-313
-5.41587e-313
-6.5362e-313
-1.0554e-312
-4.21433e-313
-4.43923e-313
1.20431e-313
-1.44674e-315
-1.06117e-313
-3.43958e-314
-1.97148e-313
-1.1575e-313
-8.57112e-314
-1.57815e-313
-2.38522e-313
6.19506e-314
3.61457e-315
-1.75566e-313
-2.70834e-314
-1.76839e-313
-4.97241e-313
-3.60095e-313
-5.57881e-313
-1.60044e-313
-3.01469e-313
-5.72742e-313
-9.75659e-313
-9.94241e-313
-2.13415e-314
6.95513e-313
7.03232e-313
3.3091e-313
-5.10675e-314
1.97057e-314
2.01606e-313
6.10637e-313
9.69487e-313
1.24435e-312
6.45079e-313
9.37198e-314
-2.51416e-313
-1.96907e-312
-1.22864e-312
-9.93129e-313
-2.02065e-313
-1.87128e-313
7.49356e-314
-2.38933e-313
-2.21222e-312
-2.72424e-313
-8.38156e-313
-8.07011e-313
2.62157e-313
5.0194e-313
1.19109e-312
3.22909e-313
2.05477e-313
1.97577e-313
3.85053e-313
8.92488e-313
9.24387e-313
1.08524e-312
1.40268e-312
1.32455e-312
5.262e-313
4.53525e-313
4.68353e-313
4.29983e-314
-2.87436e-313
-2.45846e-313
-5.03743e-313
-7.44584e-313
-7.26525e-313
-2.81356e-313
3.00633e-314
-3.22621e-313
-4.50545e-313
-2.81819e-313
-6.61542e-315
1.95697e-313
2.65836e-314
-4.45227e-313
-6.05388e-313
-8.74965e-313
-5.14871e-313
-5.64913e-313
-5.63771e-314
-4.3545e-314
-5.8266e-314
-4.72592e-314
-6.08777e-314
-5.17901e-314
-6.40716e-314
-4.22449e-314
-2.35099e-313
6.42307e-316
-1.02583e-313
-2.20732e-314
-6.09913e-314
2.27222e-314
-4.38071e-313
-2.56794e-313
-3.29954e-313
9.82094e-314
-2.20954e-313
-3.92122e-313
-7.51386e-313
-1.09556e-312
-6.47263e-313
1.83154e-313
6.44123e-313
1.02713e-312
3.7451e-313
1.88296e-313
-4.58895e-313
-2.13585e-313
3.19426e-313
1.32828e-312
1.93751e-312
1.95808e-312
1.65293e-312
6.21398e-313
2.62509e-313
8.40471e-313
6.83979e-313
1.61854e-312
1.78767e-312
2.71028e-312
3.45291e-313
-8.36696e-313
-4.79662e-313
1.50019e-313
1.22133e-312
1.45714e-312
1.48163e-312
1.11238e-312
5.90987e-313
4.44845e-313
4.73388e-313
7.74599e-313
7.36521e-313
8.97141e-313
1.32954e-312
1.59859e-312
8.20461e-313
1.09181e-312
4.36976e-313
1.62992e-313
-2.42405e-313
-2.07303e-313
-3.88814e-313
-6.45358e-313
-8.42768e-313
-5.70456e-313
-2.67066e-313
-2.46403e-313
-4.58871e-313
-1.32445e-313
9.3193e-314
1.46744e-313
-1.72759e-313
-4.93828e-313
-6.32853e-313
-9.0443e-313
-4.29823e-313
-4.09418e-313
2.03336e-314
7.09272e-315
-5.33473e-314
1.11419e-313
3.22493e-314
-1.48398e-313
-1.28511e-313
-1.05205e-313
-1.72264e-313
-1.15982e-314
-1.62875e-313
5.55248e-314
5.66091e-314
1.13464e-313
-2.20688e-313
-2.41607e-313
-1.69634e-313
7.83474e-315
-3.39577e-314
1.71584e-313
-2.16025e-313
-5.37818e-313
-2.4287e-313
-1.06821e-313
4.31529e-314
4.24277e-313
7.47271e-313
1.14127e-312
-2.47182e-313
-1.0518e-312
-8.26306e-313
2.73481e-313
1.16251e-312
1.63934e-312
2.77572e-312
2.18871e-312
1.91737e-312
2.909e-312
2.40247e-312
2.55066e-312
2.39907e-312
2.33619e-312
5.04335e-313
1.80505e-312
9.28474e-313
-5.02877e-313
6.40955e-313
8.28382e-313
1.32056e-312
1.09233e-312
5.43806e-313
3.96896e-313
5.08144e-313
1.01114e-312
1.12888e-312
1.03878e-312
1.30839e-312
1.45774e-312
8.53812e-313
1.47693e-312
5.22153e-313
4.18352e-314
-2.88176e-313
-3.10456e-313
-3.63055e-313
-5.34068e-313
-9.38003e-313
-6.88011e-313
-6.00228e-313
-4.93187e-313
-2.90944e-313
-7.48113e-314
1.20978e-313
3.23824e-313
2.43126e-314
-4.16742e-313
-8.14196e-313
-1.17571e-312
-7.16306e-313
-6.10822e-313
-1.20901e-313
-7.73269e-314
5.28254e-314
9.28872e-316
1.57884e-314
-2.62319e-313
-2.31808e-313
-1.41841e-313
-4.4644e-314
-1.31367e-313
-1.92514e-313
9.51019e-314
1.27488e-313
2.50354e-314
-6.58471e-314
-1.81322e-313
-9.77692e-314
-1.09112e-313
-2.96657e-314
2.08386e-313
8.04207e-314
-2.28526e-313
-1.23599e-313
-5.54646e-313
-3.75257e-313
-6.73942e-314
5.84659e-313
1.24451e-312
5.57946e-313
-7.46902e-313
-1.20812e-312
-9.50996e-313
-6.9358e-313
2.52947e-313
1.81141e-312
1.7689e-312
1.65663e-312
2.56914e-312
2.47183e-312
9.89284e-313
2.23939e-312
5.25002e-312
3.73286e-312
2.45476e-312
1.38357e-312
-6.79831e-313
-4.65066e-313
2.1407e-313
9.97846e-313
1.18674e-312
8.46018e-313
6.07653e-313
5.5173e-313
1.01769e-312
1.27245e-312
1.28956e-312
1.32334e-312
1.72304e-312
1.02401e-312
1.06717e-312
6.25779e-313
-4.13204e-314
-2.83173e-313
-4.22638e-313
-3.9298e-313
-5.8861e-313
-9.03796e-313
-8.97542e-313
-6.7626e-313
-4.38967e-313
-4.49667e-313
-6.43183e-315
1.7695e-313
2.75889e-313
7.30704e-315
-3.89513e-313
-9.02394e-313
-1.36016e-312
-6.45007e-313
-4.89606e-313
-2.70391e-313
-3.53033e-315
-6.32447e-314
8.03278e-314
1.90853e-314
-3.27937e-314
-5.1419e-314
-1.90442e-314
-1.68781e-313
-5.82842e-314
-1.54221e-313
3.24976e-314
3.43771e-313
3.74456e-314
-2.95507e-313
-1.25586e-313
-1.67106e-313
-2.1431e-313
-4.3656e-314
1.56242e-313
1.12224e-313
4.84042e-314
-1.99535e-313
-6.22555e-313
-8.61627e-313
-6.66864e-313
2.83441e-314
9.33828e-313
9.84179e-313
-2.54237e-314
-9.65847e-313
-1.37373e-312
-1.13894e-312
-1.06293e-312
-5.13962e-313
-4.18155e-314
8.13374e-313
7.95349e-313
5.24223e-313
-3.34371e-313
-9.27508e-313
-1.39792e-313
3.88285e-313
2.64122e-312
2.8138e-312
5.03964e-313
3.23163e-313
-9.5747e-314
1.92981e-313
6.05753e-313
8.55016e-313
6.34414e-313
4.92294e-313
8.18792e-313
1.26037e-312
1.36908e-312
1.22901e-312
1.74223e-312
1.31383e-312
1.19154e-312
5.70043e-313
1.08353e-313
7.27268e-315
-2.63024e-313
-4.14189e-313
-7.6236e-313
-9.34236e-313
-8.12627e-313
-7.92943e-313
-3.56851e-313
-2.64541e-313
2.77772e-314
3.50141e-313
4.89351e-313
8.52367e-314
-4.06342e-313
-7.3614e-313
-1.42593e-312
-7.82279e-313
-6.07087e-313
-4.89609e-314
2.54049e-314