/*--------------------------------*- C++ -*----------------------------------*\
  =========                 |
  \\      /  F ield         | OpenFOAM: The Open Source CFD Toolbox
   \\    /   O peration     | Website:  https://openfoam.org
    \\  /    A nd           | Version:  11
     \\/     M anipulation  |
\*---------------------------------------------------------------------------*/
FoamFile
{
    format      ascii;
    class       volScalarField;
    location    "100";
    object      C;
}
// * * * * * * * * * * * * * * * * * * * * * * * * * * * * * * * * * * * * * //

dimensions      [0 0 0 1 0 0 0];

internalField   nonuniform List<scalar> 
440320
(
-7.43096e-280
-7.54075e-280
-6.98139e-280
-6.07978e-280
-5.05633e-280
-4.05617e-280
-3.16246e-280
-2.41042e-280
-1.80377e-280
-1.32924e-280
-9.66636e-281
-6.94641e-281
-4.93735e-281
-3.47313e-281
-2.41877e-281
-1.66802e-281
-1.1391e-281
-7.70297e-282
-5.15751e-282
-3.4184e-282
-2.24233e-282
-1.45526e-282
-9.34124e-283
-5.92825e-283
-3.71816e-283
-2.30364e-283
-1.40922e-283
-8.50719e-284
-5.06518e-284
-2.9726e-284
-1.7184e-284
-9.77796e-285
-5.47234e-285
-3.00981e-285
-1.6254e-285
-8.61037e-286
-4.4697e-286
-2.27112e-286
-1.12806e-286
-5.46704e-287
-2.57704e-287
-1.19121e-287
-5.4119e-288
-2.42054e-288
-1.06705e-288
-4.64003e-289
-1.99151e-289
-8.44016e-290
-3.53322e-290
-1.46135e-290
-5.97303e-291
-2.41313e-291
-9.63871e-292
-3.80824e-292
-1.49078e-292
-5.8199e-293
-2.32529e-293
-1.04184e-293
-6.46235e-294
-6.38108e-294
-8.47056e-294
-1.24025e-293
-1.85074e-293
-2.75429e-293
-4.06649e-293
-5.94893e-293
-8.62019e-293
-1.23697e-292
-1.75726e-292
-2.47022e-292
-3.43339e-292
-4.71267e-292
-6.37599e-292
-8.47844e-292
-1.10341e-291
-1.39712e-291
-1.70763e-291
-1.99428e-291
-2.19484e-291
-2.22617e-291
-4.39931e-279
-3.70246e-279
-3.07736e-279
-2.52904e-279
-2.05264e-279
-1.64212e-279
-1.29332e-279
-1.00244e-279
-7.64886e-280
-5.74909e-280
-4.26008e-280
-3.11463e-280
-2.24848e-280
-1.60375e-280
-1.13075e-280
-7.88383e-281
-5.43682e-281
-3.70886e-281
-2.50279e-281
-1.67053e-281
-1.10271e-281
-7.19665e-282
-4.64228e-282
-2.95873e-282
-1.86239e-282
-1.15724e-282
-7.09478e-283
-4.2892e-283
-2.55546e-283
-1.49943e-283
-8.65851e-284
-4.91674e-284
-2.74325e-284
-1.5025e-284
-8.0705e-285
-4.24681e-285
-2.18678e-285
-1.10047e-285
-5.40406e-286
-2.58366e-286
-1.19636e-286
-5.44657e-287
-2.44102e-287
-1.07811e-287
-4.69622e-288
-2.01879e-288
-8.56808e-289
-3.59143e-289
-1.48714e-289
-6.08452e-290
-2.46015e-290
-9.83181e-291
-3.88457e-291
-1.51826e-291
-5.8826e-292
-2.27911e-292
-9.13785e-293
-4.25652e-293
-2.89315e-293
-3.09938e-293
-4.24226e-293
-6.23762e-293
-9.26871e-293
-1.36975e-292
-2.00538e-292
-2.90566e-292
-4.16495e-292
-5.90391e-292
-8.27276e-292
-1.14527e-291
-1.56544e-291
-2.11119e-291
-2.80719e-291
-3.67792e-291
-4.74648e-291
-6.03471e-291
-7.56549e-291
-9.36752e-291
-1.14815e-290
-1.39531e-290
-1.96142e-278
-1.56396e-278
-1.20675e-278
-9.34184e-279
-7.25852e-279
-5.63765e-279
-4.36034e-279
-3.34872e-279
-2.5488e-279
-1.92026e-279
-1.43098e-279
-1.05436e-279
-7.6799e-280
-5.52994e-280
-3.93637e-280
-2.77015e-280
-1.92733e-280
-1.32572e-280
-9.01492e-281
-6.05947e-281
-4.02521e-281
-2.64189e-281
-1.71268e-281
-1.09626e-281
-6.92526e-282
-4.31552e-282
-2.65135e-282
-1.605e-282
-9.56692e-283
-5.61105e-283
-3.23557e-283
-1.83282e-283
-1.01894e-283
-5.55391e-284
-2.9648e-284
-1.54819e-284
-7.89797e-285
-3.93045e-285
-1.90475e-285
-8.96381e-286
-4.06697e-286
-1.81792e-286
-8.0109e-287
-3.48224e-287
-1.49392e-287
-6.3279e-288
-2.64721e-288
-1.09398e-288
-4.46691e-289
-1.80237e-289
-7.18753e-290
-2.83323e-290
-1.10425e-290
-4.25863e-291
-1.62995e-291
-6.26674e-292
-2.53815e-292
-1.25643e-292
-9.57927e-293
-1.11404e-292
-1.56518e-292
-2.30634e-292
-3.41023e-292
-5.00415e-292
-7.26832e-292
-1.04432e-291
-1.48412e-291
-2.08598e-291
-2.89977e-291
-3.98713e-291
-5.42371e-291
-7.30244e-291
-9.73924e-291
-1.28834e-290
-1.69372e-290
-2.219e-290
-2.90742e-290
-3.82313e-290
-5.0412e-290
-6.42393e-290
-7.01248e-278
-5.61082e-278
-4.21205e-278
-3.13689e-278
-2.34651e-278
-1.76326e-278
-1.32757e-278
-9.98683e-279
-7.48827e-279
-5.58574e-279
-4.13878e-279
-3.04265e-279
-2.21737e-279
-1.60079e-279
-1.14422e-279
-8.09446e-280
-5.66516e-280
-3.92146e-280
-2.68389e-280
-1.81564e-280
-1.21366e-280
-8.01331e-281
-5.22398e-281
-3.36102e-281
-2.13306e-281
-1.33463e-281
-8.22775e-282
-4.99427e-282
-2.98276e-282
-1.75136e-282
-1.0101e-282
-5.7171e-283
-3.17221e-283
-1.7236e-283
-9.1594e-284
-4.75413e-284
-2.40664e-284
-1.18622e-284
-5.68146e-285
-2.63553e-285
-1.17349e-285
-5.1545e-286
-2.23419e-286
-9.55941e-287
-4.03882e-287
-1.6854e-287
-6.9481e-288
-2.83017e-288
-1.13921e-288
-4.53211e-289
-1.78219e-289
-6.92853e-290
-2.66384e-290
-1.01392e-290
-3.83602e-291
-1.46655e-291
-6.03588e-292
-3.20251e-292
-2.70931e-292
-3.34278e-292
-4.76783e-292
-7.02031e-292
-1.03302e-291
-1.50732e-291
-2.17749e-291
-3.11396e-291
-4.40948e-291
-6.18536e-291
-8.59969e-291
-1.18592e-290
-1.62366e-290
-2.20974e-290
-2.99428e-290
-4.04793e-290
-5.47297e-290
-7.42025e-290
-1.0109e-289
-1.38208e-289
-1.86976e-289
-2.36202e-289
-2.18987e-277
-1.77945e-277
-1.33385e-277
-9.76315e-278
-7.12508e-278
-5.21362e-278
-3.8262e-278
-2.8125e-278
-2.06708e-278
-1.51643e-278
-1.1087e-278
-8.06768e-279
-5.83601e-279
-4.19253e-279
-2.98849e-279
-2.11207e-279
-1.47895e-279
-1.02547e-279
-7.03664e-280
-4.77585e-280
-3.20438e-280
-2.12429e-280
-1.39066e-280
-8.98486e-281
-5.72559e-281
-3.59634e-281
-2.225e-281
-1.35486e-281
-8.11325e-282
-4.77361e-282
-2.75696e-282
-1.56131e-282
-8.6602e-283
-4.69899e-283
-2.49075e-283
-1.28782e-283
-6.48437e-284
-3.17368e-284
-1.50644e-284
-6.9091e-285
-3.02985e-285
-1.31167e-285
-5.60637e-286
-2.36636e-286
-9.86541e-287
-4.06317e-287
-1.65349e-287
-6.64946e-288
-2.64289e-288
-1.03834e-288
-4.03306e-289
-1.54905e-289
-5.88598e-290
-2.21556e-290
-8.30453e-291
-3.16591e-291
-1.32846e-291
-7.52888e-292
-6.90544e-292
-8.85647e-292
-1.27474e-291
-1.87691e-291
-2.75703e-291
-4.01758e-291
-5.80281e-291
-8.30979e-291
-1.18056e-290
-1.66522e-290
-2.33415e-290
-3.25475e-290
-4.52036e-290
-6.26207e-290
-8.66688e-290
-1.20055e-289
-1.66728e-289
-2.32383e-289
-3.24691e-289
-4.51514e-289
-6.10599e-289
-7.56471e-289
-6.22907e-277
-5.14367e-277
-3.8922e-277
-2.83946e-277
-2.04587e-277
-1.47008e-277
-1.05692e-277
-7.60723e-278
-5.47843e-278
-3.94373e-278
-2.83462e-278
-2.032e-278
-1.45117e-278
-1.0314e-278
-7.28835e-279
-5.11604e-279
-3.56429e-279
-2.46263e-279
-1.6861e-279
-1.14316e-279
-7.66942e-280
-5.0879e-280
-3.33523e-280
-2.15879e-280
-1.37867e-280
-8.68042e-281
-5.38377e-281
-3.28638e-281
-1.97255e-281
-1.16301e-281
-6.72841e-282
-3.81515e-282
-2.11754e-282
-1.14889e-282
-6.08424e-283
-3.1398e-283
-1.5761e-283
-7.68007e-284
-3.62383e-284
-1.64901e-284
-7.15328e-285
-3.06408e-285
-1.29604e-285
-5.41418e-286
-2.23419e-286
-9.10867e-287
-3.66954e-287
-1.46103e-287
-5.75e-288
-2.23726e-288
-8.60794e-289
-3.27601e-289
-1.23396e-289
-4.60777e-290
-1.71652e-290
-6.5432e-291
-2.79919e-291
-1.6752e-291
-1.62723e-291
-2.14106e-291
-3.10492e-291
-4.58464e-291
-6.7524e-291
-9.8768e-291
-1.43418e-290
-2.06849e-290
-2.96565e-290
-4.23058e-290
-6.0107e-290
-8.51456e-290
-1.20396e-289
-1.70134e-289
-2.40559e-289
-3.40668e-289
-4.83389e-289
-6.86546e-289
-9.71772e-289
-1.35498e-288
-1.81216e-288
-2.20223e-288
-1.6562e-276
-1.38663e-276
-1.06271e-276
-7.78495e-277
-5.58382e-277
-3.96868e-277
-2.81064e-277
-1.98805e-277
-1.40551e-277
-9.93123e-278
-7.01013e-278
-4.93974e-278
-3.47209e-278
-2.4323e-278
-1.69671e-278
-1.17758e-278
-8.12433e-279
-5.56716e-279
-3.78586e-279
-2.55281e-279
-1.70544e-279
-1.12787e-279
-7.37767e-280
-4.7692e-280
-3.04408e-280
-1.91671e-280
-1.18942e-280
-7.26697e-281
-4.36674e-281
-2.57787e-281
-1.49328e-281
-8.47712e-282
-4.70954e-282
-2.55675e-282
-1.35417e-282
-6.98501e-283
-3.50208e-283
-1.70295e-283
-8.01002e-284
-3.62865e-284
-1.56392e-284
-6.65523e-285
-2.79645e-285
-1.16044e-285
-4.75659e-286
-1.92625e-286
-7.70839e-287
-3.04886e-287
-1.19215e-287
-4.6095e-288
-1.76291e-288
-6.67159e-289
-2.5001e-289
-9.29531e-290
-3.4535e-290
-1.31929e-290
-5.73816e-291
-3.57247e-291
-3.60465e-291
-4.82847e-291
-7.05922e-291
-1.04889e-290
-1.55557e-290
-2.29429e-290
-3.36458e-290
-4.90918e-290
-7.13258e-290
-1.03282e-289
-1.49185e-289
-2.15145e-289
-3.1003e-289
-4.46745e-289
-6.44039e-289
-9.2889e-289
-1.33902e-288
-1.92351e-288
-2.73486e-288
-3.79507e-288
-5.0043e-288
-5.98237e-288
-4.18705e-276
-3.545e-276
-2.75171e-276
-2.03078e-276
-1.45727e-276
-1.02988e-276
-7.21818e-277
-5.03603e-277
-3.50424e-277
-2.43397e-277
-1.68791e-277
-1.16852e-277
-8.07247e-278
-5.56198e-278
-3.81971e-278
-2.6128e-278
-1.77882e-278
-1.20439e-278
-8.10335e-279
-5.41324e-279
-3.58735e-279
-2.3563e-279
-1.53262e-279
-9.86224e-280
-6.27242e-280
-3.93889e-280
-2.4397e-280
-1.48882e-280
-8.94098e-281
-5.27758e-281
-3.0579e-281
-1.7368e-281
-9.65527e-282
-5.24537e-282
-2.77992e-282
-1.43456e-282
-7.19356e-283
-3.49708e-283
-1.64358e-283
-7.43453e-284
-3.19627e-284
-1.35644e-284
-5.68284e-285
-2.35091e-285
-9.60548e-286
-3.8773e-286
-1.5466e-286
-6.09806e-287
-2.37736e-287
-9.16708e-288
-3.49758e-288
-1.32105e-288
-4.94364e-289
-1.83693e-289
-6.82988e-290
-2.61942e-290
-1.15343e-290
-7.3588e-291
-7.59823e-291
-1.03159e-290
-1.52271e-290
-2.28413e-290
-3.42358e-290
-5.11021e-290
-7.59511e-290
-1.12466e-289
-1.66041e-289
-2.44578e-289
-3.59676e-289
-5.28361e-289
-7.75616e-289
-1.13795e-288
-1.66821e-288
-2.44118e-288
-3.55794e-288
-5.14168e-288
-7.30622e-288
-1.00578e-287
-1.30796e-287
-1.54279e-287
-1.01851e-275
-8.70052e-276
-6.83173e-276
-5.08436e-276
-3.65993e-276
-2.58072e-276
-1.79635e-276
-1.2401e-276
-8.51463e-277
-5.82415e-277
-3.97237e-277
-2.70266e-277
-1.83439e-277
-1.24187e-277
-8.38311e-278
-5.64e-278
-3.77971e-278
-2.52157e-278
-1.67344e-278
-1.10395e-278
-7.23325e-279
-4.70319e-279
-3.03199e-279
-1.93607e-279
-1.22331e-279
-7.64022e-280
-4.71135e-280
-2.86511e-280
-1.71614e-280
-1.01114e-280
-5.852e-281
-3.32193e-281
-1.84665e-281
-1.00357e-281
-5.32221e-282
-2.74892e-282
-1.37984e-282
-6.71519e-283
-3.15937e-283
-1.43049e-283
-6.15577e-284
-2.61394e-284
-1.09548e-284
-4.53253e-285
-1.852e-285
-7.47565e-286
-2.98204e-286
-1.17596e-286
-4.58616e-287
-1.76957e-287
-6.75859e-288
-2.55667e-288
-9.58819e-289
-3.57312e-289
-1.33371e-289
-5.1428e-290
-2.28291e-290
-1.47318e-290
-1.53926e-290
-2.11275e-290
-3.15388e-290
-4.78963e-290
-7.27709e-290
-1.1024e-289
-1.66473e-289
-2.50702e-289
-3.76712e-289
-5.65055e-289
-8.46335e-289
-1.26599e-288
-1.8911e-288
-2.81971e-288
-4.19248e-288
-6.20461e-288
-9.11016e-288
-1.31981e-287
-1.86935e-287
-2.55061e-287
-3.27583e-287
-3.82253e-287
-2.40454e-275
-2.06865e-275
-1.64058e-275
-1.23104e-275
-8.89997e-276
-6.27458e-276
-4.34823e-276
-2.97752e-276
-2.02173e-276
-1.36433e-276
-9.16406e-277
-6.13236e-277
-4.09038e-277
-2.72014e-277
-1.80348e-277
-1.19193e-277
-7.85001e-278
-5.14977e-278
-3.36338e-278
-2.18557e-278
-1.41206e-278
-9.06354e-279
-5.77473e-279
-3.6488e-279
-2.28411e-279
-1.41503e-279
-8.66562e-280
-5.23945e-280
-3.12364e-280
-1.83369e-280
-1.05838e-280
-5.997e-281
-3.33029e-281
-1.80933e-281
-9.5988e-282
-4.9625e-282
-2.49467e-282
-1.21646e-282
-5.73716e-283
-2.60522e-283
-1.12527e-283
-4.79436e-284
-2.01555e-284
-8.36394e-285
-3.4273e-285
-1.38739e-285
-5.55052e-286
-2.19558e-286
-8.59115e-287
-3.32707e-287
-1.27595e-287
-4.84915e-288
-1.82819e-288
-6.85391e-289
-2.57542e-289
-9.998e-290
-4.45947e-290
-2.88168e-290
-3.02195e-290
-4.18699e-290
-6.33085e-290
-9.75603e-290
-1.50598e-289
-2.32015e-289
-3.56589e-289
-5.46853e-289
-8.37016e-289
-1.27886e-288
-1.95042e-288
-2.96849e-288
-4.50612e-288
-6.81549e-288
-1.02546e-287
-1.53093e-287
-2.25882e-287
-3.2736e-287
-4.61628e-287
-6.24459e-287
-7.93436e-287
-9.1785e-287
-5.5454e-275
-4.79766e-275
-3.83707e-275
-2.90099e-275
-2.1071e-275
-1.48699e-275
-1.02761e-275
-6.99268e-276
-4.70394e-276
-3.13683e-276
-2.07773e-276
-1.36883e-276
-8.97786e-277
-5.86566e-277
-3.81879e-277
-2.47772e-277
-1.60205e-277
-1.03208e-277
-6.62264e-278
-4.23095e-278
-2.68967e-278
-1.70033e-278
-1.06812e-278
-6.66181e-279
-4.12135e-279
-2.52647e-279
-1.53293e-279
-9.19467e-280
-5.44479e-280
-3.17866e-280
-1.82671e-280
-1.03171e-280
-5.717e-281
-3.10246e-281
-1.64562e-281
-8.51405e-282
-4.28703e-282
-2.09569e-282
-9.9173e-283
-4.52306e-283
-1.96513e-283
-8.41952e-284
-3.55866e-284
-1.48452e-284
-6.11498e-285
-2.48841e-285
-1.00089e-285
-3.98129e-286
-1.567e-286
-6.10643e-287
-2.35759e-287
-9.02519e-288
-3.42963e-288
-1.29685e-288
-4.91709e-289
-1.92434e-289
-8.60829e-290
-5.53266e-290
-5.78981e-290
-8.09e-290
-1.24064e-289
-1.94351e-289
-3.05322e-289
-4.79053e-289
-7.50149e-289
-1.17227e-288
-1.82816e-288
-2.8447e-288
-4.41504e-288
-6.83005e-288
-1.05214e-287
-1.61154e-287
-2.44905e-287
-3.6813e-287
-5.4489e-287
-7.89051e-287
-1.10745e-286
-1.48637e-286
-1.87148e-286
-2.14984e-286
-1.25553e-274
-1.09111e-274
-8.78828e-275
-6.68865e-275
-4.88022e-275
-3.44928e-275
-2.37955e-275
-1.61126e-275
-1.07538e-275
-7.09637e-276
-4.64099e-276
-3.01329e-276
-1.94484e-276
-1.24895e-276
-7.98542e-277
-5.0854e-277
-3.22644e-277
-2.03947e-277
-1.28431e-277
-8.05528e-278
-5.03039e-278
-3.12627e-278
-1.93241e-278
-1.18716e-278
-7.24266e-279
-4.38378e-279
-2.62966e-279
-1.56148e-279
-9.16634e-280
-5.31208e-280
-3.03447e-280
-1.70585e-280
-9.42067e-281
-5.10153e-281
-2.70358e-281
-1.39921e-281
-7.05606e-282
-3.45871e-282
-1.64324e-282
-7.53463e-283
-3.29799e-283
-1.42328e-283
-6.05879e-284
-2.54543e-284
-1.05597e-284
-4.32819e-285
-1.75376e-285
-7.02922e-286
-2.78865e-286
-1.09579e-286
-4.2681e-287
-1.64929e-287
-6.33047e-288
-2.41933e-288
-9.27348e-289
-3.66351e-289
-1.64281e-289
-1.04634e-289
-1.08876e-289
-1.53346e-289
-2.38768e-289
-3.80743e-289
-6.09455e-289
-9.74729e-289
-1.55598e-288
-2.47833e-288
-3.93743e-288
-6.23683e-288
-9.84253e-288
-1.54599e-287
-2.4136e-287
-3.73823e-287
-5.7293e-287
-8.65888e-287
-1.28432e-286
-1.85728e-286
-2.59489e-286
-3.45878e-286
-4.32187e-286
-4.93669e-286
-2.80156e-274
-2.44338e-274
-1.97959e-274
-1.51531e-274
-1.1102e-274
-7.86026e-275
-5.41664e-275
-3.65325e-275
-2.42186e-275
-1.58342e-275
-1.02365e-275
-6.55704e-276
-4.1682e-276
-2.63271e-276
-1.65377e-276
-1.03386e-276
-6.43529e-277
-3.98959e-277
-2.4638e-277
-1.51566e-277
-9.28658e-278
-5.66565e-278
-3.44039e-278
-2.07822e-278
-1.24797e-278
-7.4438e-279
-4.40595e-279
-2.58501e-279
-1.5015e-279
-8.62255e-280
-4.88809e-280
-2.73105e-280
-1.50123e-280
-8.1037e-281
-4.28718e-281
-2.2182e-281
-1.11994e-281
-5.50438e-282
-2.62621e-282
-1.21136e-282
-5.34736e-283
-2.3272e-283
-9.99029e-284
-4.23274e-284
-1.77103e-284
-7.32242e-285
-2.99358e-285
-1.21093e-285
-4.8501e-286
-1.9249e-286
-7.57624e-287
-2.96002e-287
-1.14942e-287
-4.44663e-288
-1.72561e-288
-6.88999e-289
-3.09917e-289
-1.95439e-289
-2.01897e-289
-2.86632e-289
-4.53543e-289
-7.36894e-289
-1.20277e-288
-1.96179e-288
-3.19307e-288
-5.18305e-288
-8.38551e-288
-1.35119e-287
-2.16625e-287
-3.45098e-287
-5.45351e-287
-8.53012e-287
-1.31686e-286
-1.99898e-286
-2.96911e-286
-4.28698e-286
-5.96463e-286
-7.9032e-286
-9.81294e-286
-1.11577e-285
-6.17962e-274
-5.40502e-274
-4.40036e-274
-3.38483e-274
-2.48903e-274
-1.76522e-274
-1.21558e-274
-8.17177e-275
-5.38596e-275
-3.49247e-275
-2.2343e-275
-1.41342e-275
-8.85755e-276
-5.50688e-276
-3.40061e-276
-2.0877e-276
-1.27513e-276
-7.75252e-277
-4.69354e-277
-2.83025e-277
-1.70001e-277
-1.01708e-277
-6.05964e-278
-3.594e-278
-2.12096e-278
-1.24458e-278
-7.25603e-279
-4.19891e-279
-2.40904e-279
-1.36854e-279
-7.68687e-280
-4.26218e-280
-2.32891e-280
-1.25172e-280
-6.60441e-281
-3.41368e-281
-1.7247e-281
-8.49705e-282
-4.0711e-282
-1.8895e-282
-8.41662e-283
-3.69657e-283
-1.60163e-283
-6.84995e-284
-2.89367e-284
-1.20818e-284
-4.98927e-285
-2.03926e-285
-8.25597e-286
-3.31343e-286
-1.31942e-286
-5.21819e-287
-2.05233e-287
-8.04583e-288
-3.16452e-288
-1.27848e-288
-5.77666e-289
-3.61187e-289
-3.70624e-289
-5.3068e-289
-8.53979e-289
-1.41463e-288
-2.35537e-288
-3.9184e-288
-6.50188e-288
-1.07515e-287
-1.77024e-287
-2.89934e-287
-4.71757e-287
-7.61394e-287
-1.21653e-286
-1.91955e-286
-2.98197e-286
-4.54308e-286
-6.75442e-286
-9.73726e-286
-1.3498e-285
-1.77948e-285
-2.1979e-285
-2.48981e-285
-1.35067e-273
-1.18408e-273
-9.67859e-274
-7.47561e-274
-5.51464e-274
-3.91704e-274
-2.69608e-274
-1.80748e-274
-1.1853e-274
-7.62987e-275
-4.83516e-275
-3.02383e-275
-1.86994e-275
-1.14537e-275
-6.95839e-276
-4.19769e-276
-2.51683e-276
-1.50095e-276
-8.9084e-277
-5.26439e-277
-3.09842e-277
-1.81654e-277
-1.06089e-277
-6.17102e-278
-3.57422e-278
-2.06037e-278
-1.18134e-278
-6.73163e-279
-3.80847e-279
-2.13677e-279
-1.18728e-279
-6.52348e-280
-3.53842e-280
-1.89126e-280
-9.9416e-281
-5.12893e-281
-2.59126e-281
-1.27908e-281
-6.15243e-282
-2.87306e-282
-1.29159e-282
-5.72658e-283
-2.5054e-283
-1.08226e-283
-4.61891e-284
-1.94891e-284
-8.13586e-285
-3.36277e-285
-1.37727e-285
-5.59427e-286
-2.25564e-286
-9.03747e-287
-3.60286e-287
-1.43237e-287
-5.71383e-288
-2.33795e-288
-1.06316e-288
-6.61199e-289
-6.75614e-289
-9.76919e-289
-1.59993e-288
-2.70306e-288
-4.59136e-288
-7.7892e-288
-1.3171e-287
-2.21735e-287
-3.71258e-287
-6.1747e-287
-1.01862e-286
-1.66379e-286
-2.68491e-286
-4.26949e-286
-6.66873e-286
-1.0191e-285
-1.51623e-285
-2.18268e-285
-3.01606e-285
-3.95926e-285
-4.86905e-285
-5.49905e-285
-2.93069e-273
-2.57401e-273
-2.11092e-273
-1.63605e-273
-1.21015e-273
-8.6074e-274
-5.92221e-274
-3.96104e-274
-2.5861e-274
-1.6539e-274
-1.03919e-274
-6.43118e-275
-3.92852e-275
-2.373e-275
-1.4196e-275
-8.42173e-276
-4.96006e-276
-2.90288e-276
-1.68953e-276
-9.78527e-277
-5.64247e-277
-3.24054e-277
-1.85403e-277
-1.05683e-277
-6.00145e-278
-3.39444e-278
-1.91145e-278
-1.07097e-278
-5.96571e-279
-3.30048e-279
-1.81133e-279
-9.84717e-280
-5.29456e-280
-2.81053e-280
-1.47016e-280
-7.56261e-281
-3.81751e-281
-1.88669e-281
-9.10595e-282
-4.27696e-282
-1.94007e-282
-8.68321e-283
-3.83646e-283
-1.67424e-283
-7.22125e-284
-3.08042e-284
-1.30054e-284
-5.43859e-285
-2.25453e-285
-9.27287e-286
-3.78768e-286
-1.53814e-286
-6.21809e-287
-2.50794e-287
-1.0151e-287
-4.20984e-288
-1.9308e-288
-1.19985e-288
-1.22613e-288
-1.79407e-288
-2.99231e-288
-5.15665e-288
-8.93358e-288
-1.54483e-287
-2.66024e-287
-4.55586e-287
-7.74971e-287
-1.30755e-286
-2.18461e-286
-3.60737e-286
-5.87369e-286
-9.40471e-286
-1.47596e-285
-2.26142e-285
-3.36643e-285
-4.83997e-285
-6.66986e-285
-8.7246e-285
-1.06911e-284
-1.20447e-284
-6.32221e-273
-5.56108e-273
-4.57295e-273
-3.55436e-273
-2.63504e-273
-1.87639e-273
-1.29063e-273
-8.61485e-274
-5.60276e-274
-3.56256e-274
-2.22136e-274
-1.36173e-274
-8.22513e-275
-4.90471e-275
-2.89218e-275
-1.68891e-275
-9.77918e-276
-5.62067e-276
-3.20976e-276
-1.82267e-276
-1.02989e-276
-5.79383e-277
-3.24658e-277
-1.81261e-277
-1.00849e-277
-5.59147e-278
-3.08885e-278
-1.69949e-278
-9.30766e-279
-5.07005e-279
-2.74402e-279
-1.47375e-279
-7.84302e-280
-4.12904e-280
-2.14648e-280
-1.09967e-280
-5.54042e-281
-2.73909e-281
-1.32551e-281
-6.25803e-282
-2.86276e-282
-1.29297e-282
-5.768e-283
-2.54281e-283
-1.10843e-283
-4.78075e-284
-2.04166e-284
-8.63981e-285
-3.6259e-285
-1.51045e-285
-6.25162e-286
-2.57361e-286
-1.05519e-286
-4.31816e-287
-1.7737e-287
-7.46002e-288
-3.45856e-288
-2.15945e-288
-2.22012e-288
-3.29624e-288
-5.60276e-288
-9.84705e-288
-1.7391e-287
-3.06323e-287
-5.3674e-287
-9.34174e-287
-1.61274e-286
-2.75739e-286
-4.66085e-286
-7.77262e-286
-1.27575e-285
-2.05516e-285
-3.23874e-285
-4.97343e-285
-7.40707e-285
-1.06377e-284
-1.46262e-284
-1.90755e-284
-2.33064e-284
-2.62046e-284
-1.35753e-272
-1.19555e-272
-9.85301e-273
-7.67637e-273
-5.70166e-273
-4.06403e-273
-2.79455e-273
-1.86206e-273
-1.20691e-273
-7.63521e-274
-4.72836e-274
-2.87389e-274
-1.71825e-274
-1.01257e-274
-5.89189e-275
-3.39035e-275
-1.93193e-275
-1.0915e-275
-6.12081e-276
-3.41005e-276
-1.88905e-276
-1.04131e-276
-5.71527e-277
-3.12492e-277
-1.70275e-277
-9.24863e-278
-5.00781e-278
-2.70279e-278
-1.45354e-278
-7.78482e-279
-4.14888e-279
-2.19794e-279
-1.15597e-279
-6.02644e-280
-3.10897e-280
-1.58414e-280
-7.95636e-281
-3.93044e-281
-1.9052e-281
-9.03353e-282
-4.16398e-282
-1.8966e-282
-8.53859e-283
-3.80124e-283
-1.67424e-283
-7.30006e-284
-3.15317e-284
-1.35021e-284
-5.73648e-285
-2.42025e-285
-1.015e-285
-4.23568e-286
-1.76119e-286
-7.31211e-287
-3.04792e-287
-1.30063e-287
-6.10938e-288
-3.85694e-288
-4.01828e-288
-6.07376e-288
-1.05275e-287
-1.88631e-287
-3.39369e-287
-6.08317e-287
-1.08346e-286
-1.91434e-286
-3.35031e-286
-5.79826e-286
-9.90477e-286
-1.66647e-285
-2.75482e-285
-4.46174e-285
-7.05676e-285
-1.08575e-284
-1.61768e-284
-2.32112e-284
-3.18535e-284
-4.1442e-284
-5.05116e-284
-5.67004e-284
-2.90409e-272
-2.5601e-272
-2.11372e-272
-1.64997e-272
-1.22743e-272
-8.7558e-273
-6.01915e-273
-4.00451e-273
-2.58788e-273
-1.62982e-273
-1.00323e-273
-6.05124e-274
-3.58482e-274
-2.09004e-274
-1.20142e-274
-6.82019e-275
-3.82903e-275
-2.12885e-275
-1.17347e-275
-6.42004e-276
-3.48948e-276
-1.88592e-276
-1.01429e-276
-5.43222e-277
-2.89881e-277
-1.54202e-277
-8.17939e-278
-4.32692e-278
-2.28263e-278
-1.20052e-278
-6.29144e-279
-3.28266e-279
-1.70347e-279
-8.78013e-280
-4.48796e-280
-2.27097e-280
-1.1354e-280
-5.5971e-281
-2.71427e-281
-1.29103e-281
-5.98969e-282
-2.74875e-282
-1.24794e-282
-5.60684e-283
-2.49399e-283
-1.09888e-283
-4.79914e-284
-2.0789e-284
-8.93928e-285
-3.81896e-285
-1.62244e-285
-6.86173e-286
-2.89269e-286
-1.21811e-286
-5.15166e-287
-2.23118e-287
-1.06443e-287
-6.84206e-288
-7.28271e-288
-1.12476e-287
-1.98891e-287
-3.63102e-287
-6.64845e-287
-1.21146e-286
-2.19074e-286
-3.92484e-286
-6.9552e-286
-1.21704e-285
-2.09879e-285
-3.55924e-285
-5.92094e-285
-9.63485e-285
-1.52867e-284
-2.35597e-284
-3.51147e-284
-5.03463e-284
-6.89836e-284
-8.95685e-284
-1.08955e-283
-1.22142e-283
-6.19396e-272
-5.46467e-272
-4.51855e-272
-3.53277e-272
-2.63142e-272
-1.87831e-272
-1.29091e-272
-8.57681e-273
-5.52839e-273
-3.46809e-273
-2.12342e-273
-1.27216e-273
-7.47485e-274
-4.31629e-274
-2.45397e-274
-1.37596e-274
-7.62043e-275
-4.17432e-275
-2.2645e-275
-1.21798e-275
-6.50206e-276
-3.4485e-276
-1.81875e-276
-9.54645e-277
-4.99067e-277
-2.6002e-277
-1.35089e-277
-7.00111e-278
-3.62029e-278
-1.86788e-278
-9.61357e-279
-4.93317e-279
-2.52191e-279
-1.283e-279
-6.48679e-280
-3.25421e-280
-1.61694e-280
-7.94176e-281
-3.84729e-281
-1.83316e-281
-8.54826e-282
-3.94777e-282
-1.8056e-282
-8.18004e-283
-3.67193e-283
-1.63391e-283
-7.21097e-284
-3.15841e-284
-1.37396e-284
-5.94106e-285
-2.55584e-285
-1.09504e-285
-4.67847e-286
-1.9974e-286
-8.56832e-287
-3.76746e-287
-1.83024e-287
-1.20702e-287
-1.32405e-287
-2.09685e-287
-3.78376e-287
-7.03253e-287
-1.30902e-286
-2.42179e-286
-4.44093e-286
-8.05743e-286
-1.44406e-285
-2.55195e-285
-4.43819e-285
-7.5793e-285
-1.26785e-284
-2.0716e-284
-3.29581e-284
-5.08686e-284
-7.58423e-284
-1.08674e-283
-1.48711e-283
-1.92769e-283
-2.34114e-283
-2.62166e-283
-1.31788e-271
-1.16347e-271
-9.63199e-272
-7.5404e-272
-5.62236e-272
-4.01529e-272
-2.75893e-272
-1.83089e-272
-1.1775e-272
-7.36155e-273
-4.48634e-273
-2.67188e-273
-1.55857e-273
-8.92309e-274
-5.02336e-274
-2.78548e-274
-1.52373e-274
-8.23441e-275
-4.40194e-275
-2.33061e-275
-1.22349e-275
-6.37526e-276
-3.30061e-276
-1.69941e-276
-8.70939e-277
-4.4465e-277
-2.26308e-277
-1.14896e-277
-5.82143e-278
-2.94447e-278
-1.48684e-278
-7.49418e-279
-3.76858e-279
-1.88923e-279
-9.43142e-280
-4.68228e-280
-2.30793e-280
-1.12739e-280
-5.44643e-281
-2.59532e-281
-1.21438e-281
-5.63551e-282
-2.5933e-282
-1.18335e-282
-5.35544e-283
-2.40455e-283
-1.07158e-283
-4.74255e-284
-2.08584e-284
-9.1236e-285
-3.97229e-285
-1.72318e-285
-7.45721e-286
-3.22617e-286
-1.40321e-286
-6.26591e-287
-3.10899e-287
-2.12122e-287
-2.41914e-287
-3.94079e-287
-7.25627e-287
-1.37162e-286
-2.59221e-286
-4.86287e-286
-9.03071e-286
-1.65725e-285
-3.00027e-285
-5.34889e-285
-9.3721e-285
-1.61037e-284
-2.70682e-284
-4.43858e-284
-7.07826e-284
-1.09386e-283
-1.63137e-283
-2.33643e-283
-3.19385e-283
-4.13449e-283
-5.01466e-283
-5.61061e-283
-2.79854e-271
-2.47198e-271
-2.04848e-271
-1.60534e-271
-1.198e-271
-8.5591e-272
-5.87966e-272
-3.89789e-272
-2.502e-272
-1.5596e-272
-9.46633e-273
-5.6086e-273
-3.2509e-273
-1.84721e-273
-1.03087e-273
-5.65983e-274
-3.06198e-274
-1.63466e-274
-8.62305e-275
-4.50035e-275
-2.32645e-275
-1.19258e-275
-6.06857e-276
-3.06853e-276
-1.54326e-276
-7.72707e-277
-3.85508e-277
-1.91795e-277
-9.52204e-278
-4.72008e-278
-2.33698e-278
-1.15587e-278
-5.71023e-279
-2.81644e-279
-1.38585e-279
-6.79575e-280
-3.31637e-280
-1.60799e-280
-7.73139e-281
-3.67731e-281
-1.72317e-281
-8.02143e-282
-3.70803e-282
-1.70189e-282
-7.75575e-283
-3.50992e-283
-1.57796e-283
-7.05037e-284
-3.13256e-284
-1.38502e-284
-6.09857e-285
-2.67681e-285
-1.17259e-285
-5.13738e-286
-2.26465e-286
-1.02744e-286
-5.22525e-287
-3.72215e-287
-4.44989e-287
-7.47416e-287
-1.40369e-286
-2.69533e-286
-5.16491e-286
-9.81137e-286
-1.84282e-285
-3.41628e-285
-6.24036e-285
-1.12117e-284
-1.97734e-284
-3.41577e-284
-5.76553e-284
-9.48325e-284
-1.51538e-283
-2.34438e-283
-3.49733e-283
-5.0069e-283
-6.83846e-283
-8.8428e-283
-1.07138e-282
-1.19786e-282
-5.93333e-271
-5.24328e-271
-4.34847e-271
-3.41068e-271
-2.54697e-271
-1.82025e-271
-1.25014e-271
-8.28046e-272
-5.30628e-272
-3.29925e-272
-1.99558e-272
-1.17705e-272
-6.78489e-273
-3.82996e-273
-2.12105e-273
-1.1544e-273
-6.18433e-274
-3.26585e-274
-1.70238e-274
-8.77054e-275
-4.47122e-275
-2.25815e-275
-1.13104e-275
-5.62424e-276
-2.77942e-276
-1.36641e-276
-6.68904e-277
-3.26366e-277
-1.58845e-277
-7.71803e-278
-3.74606e-278
-1.81708e-278
-8.81047e-279
-4.2699e-279
-2.06758e-279
-9.99578e-280
-4.81969e-280
-2.31459e-280
-1.10519e-280
-5.23534e-281
-2.45138e-281
-1.14233e-281
-5.29485e-282
-2.44032e-282
-1.11816e-282
-5.09372e-283
-2.30737e-283
-1.03967e-283
-4.66202e-284
-2.08165e-284
-9.26201e-285
-4.11001e-285
-1.82106e-285
-8.07413e-286
-3.60567e-286
-1.66309e-286
-8.70705e-287
-6.53985e-287
-8.25537e-287
-1.43155e-286
-2.73986e-286
-5.33717e-286
-1.03556e-285
-1.9893e-285
-3.77414e-285
-7.05948e-285
-1.29968e-284
-2.35087e-284
-4.16967e-284
-7.23624e-284
-1.22582e-283
-2.02155e-283
-3.23595e-283
-5.01089e-283
-7.47705e-283
-1.07011e-282
-1.46056e-282
-1.88697e-282
-2.28425e-282
-2.55243e-282
-1.25634e-270
-1.11062e-270
-9.2168e-271
-7.23407e-271
-5.40505e-271
-3.86376e-271
-2.6531e-271
-1.75597e-271
-1.12366e-271
-6.97141e-272
-4.20415e-272
-2.47018e-272
-1.41713e-272
-7.95392e-273
-4.37567e-273
-2.36338e-273
-1.25526e-273
-6.56566e-274
-3.38657e-274
-1.7248e-274
-8.68431e-275
-4.32767e-275
-2.13686e-275
-1.04658e-275
-5.08971e-276
-2.46031e-276
-1.18334e-276
-5.66865e-277
-2.70726e-277
-1.2902e-277
-6.14077e-278
-2.92105e-278
-1.38942e-278
-6.61045e-279
-3.14581e-279
-1.49691e-279
-7.11742e-280
-3.37803e-280
-1.59811e-280
-7.52155e-281
-3.51045e-281
-1.63377e-281
-7.57681e-282
-3.49972e-282
-1.60948e-282
-7.36849e-283
-3.35832e-283
-1.52404e-283
-6.88885e-284
-3.103e-284
-1.39369e-284
-6.24658e-285
-2.79698e-285
-1.25401e-285
-5.67066e-286
-2.66166e-286
-1.44236e-286
-1.15428e-286
-1.54703e-286
-2.76996e-286
-5.39604e-286
-1.06485e-285
-2.08912e-285
-4.05297e-285
-7.75747e-285
-1.4624e-284
-2.71075e-284
-4.93198e-284
-8.79052e-284
-1.5316e-283
-2.6025e-283
-4.30153e-283
-6.89575e-283
-1.06866e-282
-1.59497e-282
-2.28217e-282
-3.11312e-282
-4.0191e-282
-4.8619e-282
-5.4302e-282
-2.65741e-270
-2.34988e-270
-1.95113e-270
-1.53224e-270
-1.14533e-270
-8.18881e-271
-5.62191e-271
-3.71849e-271
-2.37663e-271
-1.47179e-271
-8.85325e-272
-5.18472e-272
-2.96233e-272
-1.65454e-272
-9.04991e-273
-4.85584e-273
-2.55987e-273
-1.32781e-273
-6.78595e-274
-3.42138e-274
-1.70386e-274
-8.39091e-275
-4.09084e-275
-1.97657e-275
-9.47471e-276
-4.51054e-276
-2.13478e-276
-1.00552e-276
-4.7183e-277
-2.20791e-277
-1.03134e-277
-4.81328e-278
-2.24614e-278
-1.0487e-278
-4.90056e-279
-2.29222e-279
-1.07292e-279
-5.02233e-280
-2.34865e-280
-1.09552e-280
-5.08291e-281
-2.35648e-281
-1.09078e-281
-5.03792e-282
-2.32057e-282
-1.06567e-282
-4.87844e-283
-2.22625e-283
-1.01294e-283
-4.59685e-284
-2.0817e-284
-9.41354e-285
-4.25529e-285
-1.92755e-285
-8.82278e-286
-4.22022e-286
-2.38322e-286
-2.05365e-286
-2.93202e-286
-5.41464e-286
-1.07199e-285
-2.13998e-285
-4.23942e-285
-8.29578e-285
-1.60004e-284
-3.03677e-284
-5.66224e-284
-1.03537e-283
-1.85312e-283
-3.23965e-283
-5.51921e-283
-9.1397e-283
-1.46701e-282
-2.27502e-282
-3.39611e-282
-4.85847e-282
-6.6245e-282
-8.54744e-282
-1.0334e-281
-1.15377e-281
-5.61617e-270
-4.96745e-270
-4.12623e-270
-3.24181e-270
-2.42404e-270
-1.73335e-270
-1.18981e-270
-7.8654e-271
-5.02196e-271
-3.10516e-271
-1.86384e-271
-1.08848e-271
-6.19764e-272
-3.44712e-272
-1.87624e-272
-1.00103e-272
-5.24328e-273
-2.70015e-273
-1.36896e-273
-6.84176e-274
-3.37477e-274
-1.64483e-274
-7.93005e-275
-3.78598e-275
-1.79177e-275
-8.41478e-276
-3.92561e-276
-1.82107e-276
-8.40926e-277
-3.86953e-277
-1.77617e-277
-8.14104e-278
-3.72958e-278
-1.70922e-278
-7.84127e-279
-3.60267e-279
-1.65798e-279
-7.64136e-280
-3.52482e-280
-1.62548e-280
-7.47701e-281
-3.44361e-281
-1.58672e-281
-7.30924e-282
-3.36407e-282
-1.54624e-282
-7.09523e-283
-3.24995e-283
-1.486e-283
-6.7838e-284
-3.09313e-284
-1.40941e-284
-6.42452e-285
-2.93743e-285
-1.36049e-285
-6.64566e-286
-3.94357e-286
-3.69556e-286
-5.62435e-286
-1.069e-285
-2.14717e-285
-4.32982e-285
-8.65042e-285
-1.70538e-284
-3.31101e-284
-6.32063e-284
-1.18445e-283
-2.1751e-283
-3.90684e-283
-6.84948e-283
-1.16947e-282
-1.93972e-282
-3.1167e-282
-4.83612e-282
-7.22052e-282
-1.03282e-281
-1.40775e-281
-1.81555e-281
-2.19405e-281
-2.44887e-281
-1.1861e-269
-1.0493e-269
-8.71897e-270
-6.85252e-270
-5.1253e-270
-3.66531e-270
-2.51558e-270
-1.66217e-270
-1.06037e-270
-6.5479e-271
-3.92325e-271
-2.28582e-271
-1.2977e-271
-7.19236e-272
-3.89846e-272
-2.06993e-272
-1.07826e-272
-5.51859e-273
-2.77875e-273
-1.3783e-273
-6.74268e-274
-3.25697e-274
-1.55512e-274
-7.34757e-275
-3.43878e-275
-1.59584e-275
-7.35096e-276
-3.36441e-276
-1.53157e-276
-6.94195e-277
-3.13624e-277