/*--------------------------------*- C++ -*----------------------------------*\
  =========                 |
  \\      /  F ield         | OpenFOAM: The Open Source CFD Toolbox
   \\    /   O peration     | Website:  https://openfoam.org
    \\  /    A nd           | Version:  11
     \\/     M anipulation  |
\*---------------------------------------------------------------------------*/
FoamFile
{
    format      ascii;
    class       volScalarField;
    location    "20";
    object      C;
}
// * * * * * * * * * * * * * * * * * * * * * * * * * * * * * * * * * * * * * //

dimensions      [0 0 0 1 0 0 0];

internalField   nonuniform List<scalar> 
503040
(
3.92167e-81
3.85704e-81
3.74749e-81
3.60619e-81
3.44269e-81
3.26434e-81
3.07695e-81
2.88518e-81
2.69279e-81
2.50275e-81
2.31742e-81
2.13859e-81
1.96759e-81
1.80538e-81
1.65257e-81
1.5095e-81
1.37629e-81
1.25289e-81
1.13911e-81
1.03463e-81
9.39089e-82
8.52041e-82
7.73018e-82
7.0153e-82
6.37085e-82
5.79194e-82
5.27383e-82
4.81199e-82
4.40214e-82
4.04029e-82
3.72274e-82
3.44615e-82
3.20752e-82
3.00415e-82
2.83371e-82
2.69422e-82
2.58401e-82
2.50175e-82
2.44644e-82
2.4174e-82
2.41427e-82
2.437e-82
2.48589e-82
2.56151e-82
2.6648e-82
2.79698e-82
2.95964e-82
3.15466e-82
3.38429e-82
3.65108e-82
3.95796e-82
4.30814e-82
4.70519e-82
5.15297e-82
5.65563e-82
6.21756e-82
6.84335e-82
7.53775e-82
8.30554e-82
9.15147e-82
1.00801e-81
1.10956e-81
1.22018e-81
1.34016e-81
1.46968e-81
1.60879e-81
1.75739e-81
1.91514e-81
2.08142e-81
2.25534e-81
2.43559e-81
2.62041e-81
2.80753e-81
2.99405e-81
3.17631e-81
3.34979e-81
3.50882e-81
3.64627e-81
3.75283e-81
3.8157e-81
1.20772e-80
1.19275e-80
1.16582e-80
1.12951e-80
1.08601e-80
1.03723e-80
9.84766e-81
9.29998e-81
8.7408e-81
8.17977e-81
7.62479e-81
7.08226e-81
6.55722e-81
6.05352e-81
5.574e-81
5.12059e-81
4.69449e-81
4.29629e-81
3.92605e-81
3.58343e-81
3.26775e-81
2.97811e-81
2.71341e-81
2.47245e-81
2.25394e-81
2.05655e-81
1.87897e-81
1.7199e-81
1.57809e-81
1.45236e-81
1.3416e-81
1.24478e-81
1.16098e-81
1.08937e-81
1.0292e-81
9.79851e-82
9.40788e-82
9.11587e-82
8.91925e-82
8.81582e-82
8.80443e-82
8.88493e-82
9.0582e-82
9.32616e-82
9.69174e-82
1.01589e-81
1.07326e-81
1.14189e-81
1.22247e-81
1.31581e-81
1.4228e-81
1.54443e-81
1.68176e-81
1.83595e-81
2.00819e-81
2.19975e-81
2.41189e-81
2.64591e-81
2.90304e-81
3.18447e-81
3.49125e-81
3.82426e-81
4.18415e-81
4.57126e-81
4.98552e-81
5.42636e-81
5.89262e-81
6.3824e-81
6.89296e-81
7.42054e-81
7.96024e-81
8.50585e-81
9.04966e-81
9.58231e-81
1.00925e-80
1.0567e-80
1.09901e-80
1.13433e-80
1.16052e-80
1.17508e-80
2.08767e-80
2.06547e-80
2.02467e-80
1.96865e-80
1.90046e-80
1.82289e-80
1.73841e-80
1.64919e-80
1.55713e-80
1.46386e-80
1.37076e-80
1.27897e-80
1.18941e-80
1.10284e-80
1.01983e-80
9.40792e-81
8.66028e-81
7.95719e-81
7.29954e-81
6.68744e-81
6.1204e-81
5.59741e-81
5.11708e-81
4.67774e-81
4.27753e-81
3.91448e-81
3.58654e-81
3.29168e-81
3.02788e-81
2.79323e-81
2.58589e-81
2.40416e-81
2.24646e-81
2.11138e-81
1.99767e-81
1.90424e-81
1.83018e-81
1.77475e-81
1.73738e-81
1.71769e-81
1.71548e-81
1.73072e-81
1.76357e-81
1.81435e-81
1.88358e-81
1.97193e-81
2.08027e-81
2.20963e-81
2.3612e-81
2.53633e-81
2.73653e-81
2.96345e-81
3.21884e-81
3.50457e-81
3.82257e-81
4.17482e-81
4.56329e-81
4.98989e-81
5.45643e-81
5.96452e-81
6.51551e-81
7.11036e-81
7.74957e-81
8.43301e-81
9.15981e-81
9.92819e-81
1.07353e-80
1.1577e-80
1.24478e-80
1.33404e-80
1.42457e-80
1.51527e-80
1.60479e-80
1.69155e-80
1.77372e-80
1.84916e-80
1.91547e-80
1.96996e-80
2.00963e-80
2.03123e-80
3.06053e-80
3.03128e-80
2.97696e-80
2.9016e-80
2.80902e-80
2.70275e-80
2.58603e-80
2.4618e-80
2.33265e-80
2.20086e-80
2.06841e-80
1.93696e-80
1.80792e-80
1.68242e-80
1.56138e-80
1.4455e-80
1.33529e-80
1.23111e-80
1.13317e-80
1.04157e-80
9.56328e-81
8.77352e-81
8.04508e-81
7.37608e-81
6.76428e-81
6.20721e-81
5.70224e-81
5.24668e-81
4.83785e-81
4.47312e-81
4.14996e-81
3.866e-81
3.61904e-81
3.40708e-81
3.22832e-81
3.08122e-81
2.96445e-81
2.87694e-81
2.81789e-81
2.78673e-81
2.78317e-81
2.80716e-81
2.85893e-81
2.93895e-81
3.04796e-81
3.18694e-81
3.35712e-81
3.55997e-81
3.7972e-81
4.07071e-81
4.38261e-81
4.7352e-81
5.13088e-81
5.5722e-81
6.06175e-81
6.60213e-81
7.19587e-81
7.84536e-81
8.55277e-81
9.31992e-81
1.01481e-80
1.10382e-80
1.199e-80
1.30026e-80
1.40739e-80
1.52004e-80
1.63771e-80
1.75972e-80
1.88518e-80
2.01298e-80
2.14177e-80
2.26992e-80
2.3955e-80
2.51631e-80
2.62981e-80
2.73315e-80
2.82319e-80
2.89647e-80
2.9493e-80
2.97775e-80
4.15433e-80
4.11768e-80
4.04918e-80
3.95357e-80
3.83539e-80
3.69894e-80
3.54822e-80
3.3869e-80
3.21827e-80
3.04529e-80
2.87053e-80
2.69623e-80
2.52428e-80
2.35625e-80
2.19344e-80
2.03684e-80
1.88726e-80
1.74524e-80
1.61118e-80
1.48529e-80
1.36766e-80
1.25826e-80
1.15699e-80
1.06365e-80
9.78003e-81
8.99759e-81
8.28613e-81
7.64239e-81
7.06306e-81
6.54487e-81
6.08464e-81
5.67932e-81
5.32609e-81
5.02236e-81
4.76579e-81
4.55435e-81
4.3863e-81
4.26023e-81
4.17506e-81
4.13006e-81
4.12482e-81
4.15929e-81
4.23375e-81
4.34883e-81
4.50551e-81
4.70507e-81
4.94913e-81
5.23961e-81
5.57872e-81
5.96893e-81
6.41295e-81
6.91369e-81
7.47421e-81
8.09765e-81
8.78722e-81
9.54603e-81
1.03771e-80
1.12831e-80
1.22664e-80
1.33289e-80
1.44715e-80
1.56947e-80
1.69974e-80
1.83776e-80
1.98315e-80
2.13535e-80
2.29363e-80
2.45697e-80
2.62414e-80
2.7936e-80
2.9635e-80
3.13169e-80
3.29565e-80
3.45251e-80
3.59906e-80
3.73174e-80
3.84666e-80
3.93964e-80
4.00625e-80
4.0419e-80
5.39872e-80
5.35393e-80
5.26991e-80
5.15217e-80
5.00606e-80
4.83668e-80
4.64883e-80
4.44696e-80
4.23512e-80
4.01695e-80
3.79567e-80
3.57412e-80
3.35471e-80
3.1395e-80
2.93017e-80
2.72812e-80
2.5344e-80
2.34983e-80
2.17499e-80
2.01025e-80
1.85581e-80
1.71171e-80
1.57789e-80
1.45417e-80
1.34031e-80
1.236e-80
1.14089e-80
1.05462e-80
9.76782e-81
9.07001e-81
8.44889e-81
7.90081e-81
7.42229e-81
7.01014e-81
6.66147e-81
6.37375e-81
6.14482e-81
5.97291e-81
5.85666e-81
5.79514e-81
5.78785e-81
5.8347e-81
5.93607e-81
6.09272e-81
6.30588e-81
6.57715e-81
6.90854e-81
7.30244e-81
7.76157e-81
8.28896e-81
8.88794e-81
9.562e-81
1.03148e-80
1.11502e-80
1.20717e-80
1.30831e-80
1.41876e-80
1.53883e-80
1.66874e-80
1.80867e-80
1.95868e-80
2.11872e-80
2.28859e-80
2.46794e-80
2.6562e-80
2.85258e-80
3.05604e-80
3.26523e-80
3.47851e-80
3.69389e-80
3.90901e-80
4.12112e-80
4.32708e-80
4.52335e-80
4.70599e-80
4.87067e-80
5.01274e-80
5.12723e-80
5.20893e-80
5.25248e-80
6.82636e-80
6.77242e-80
6.67096e-80
6.5284e-80
6.351e-80
6.14478e-80
5.91543e-80
5.66824e-80
5.40808e-80
5.13935e-80
4.866e-80
4.59148e-80
4.31881e-80
4.05056e-80
3.78887e-80
3.53552e-80
3.29191e-80
3.05914e-80
2.83799e-80
2.62903e-80
2.43259e-80
2.2488e-80
2.07766e-80
1.91904e-80
1.77268e-80
1.63826e-80
1.51542e-80
1.40374e-80
1.30276e-80
1.21205e-80
1.13116e-80
1.05965e-80
9.97119e-81
9.4318e-81
8.9749e-81
8.59742e-81
8.29677e-81
8.07079e-81
7.91785e-81
7.8368e-81
7.82701e-81
7.88841e-81
8.02141e-81
8.22697e-81
8.50654e-81
8.86207e-81
9.29598e-81
9.81112e-81
1.04108e-80
1.10985e-80
1.18783e-80
1.27542e-80
1.37305e-80
1.48115e-80
1.60015e-80
1.73044e-80
1.87239e-80
2.02631e-80
2.19242e-80
2.37086e-80
2.56164e-80
2.7646e-80
2.97944e-80
3.20561e-80
3.44232e-80
3.68853e-80
3.94285e-80
4.20357e-80
4.46861e-80
4.73545e-80
5.00117e-80
5.2624e-80
5.51532e-80
5.75563e-80
5.9786e-80
6.17909e-80
6.35156e-80
6.49017e-80
6.58882e-80
6.64127e-80
8.47416e-80
8.40974e-80
8.28838e-80
8.11753e-80
7.90453e-80
7.65642e-80
7.37992e-80
7.08128e-80
6.76628e-80
6.4402e-80
6.10775e-80
5.77313e-80
5.43998e-80
5.11147e-80
4.79025e-80
4.47853e-80
4.17808e-80
3.89031e-80
3.61628e-80
3.35675e-80
3.11219e-80
2.88286e-80
2.66884e-80
2.47003e-80
2.2862e-80
2.11702e-80
1.9621e-80
1.82096e-80
1.69313e-80
1.5781e-80
1.47534e-80
1.38437e-80
1.3047e-80
1.23589e-80
1.17754e-80
1.12928e-80
1.09081e-80
1.06187e-80
1.04226e-80
1.03186e-80
1.03058e-80
1.03842e-80
1.05542e-80
1.0817e-80
1.11743e-80
1.16284e-80
1.21821e-80
1.28388e-80
1.36023e-80
1.44768e-80
1.54669e-80
1.65773e-80
1.78129e-80
1.91785e-80
2.06789e-80
2.23184e-80
2.4101e-80
2.60297e-80
2.81066e-80
3.03328e-80
3.27074e-80
3.5228e-80
3.78898e-80
4.06854e-80
4.36045e-80
4.66335e-80
4.9755e-80
5.29476e-80
5.61853e-80
5.94377e-80
6.2669e-80
6.58386e-80
6.89005e-80
7.18036e-80
7.44915e-80
7.69034e-80
7.89741e-80
8.0635e-80
8.1815e-80
8.24413e-80
1.03844e-79
1.03079e-79
1.01636e-79
9.96016e-80
9.7062e-80
9.40996e-80
9.07932e-80
8.72165e-80
8.34379e-80
7.95197e-80
7.55182e-80
7.14834e-80
6.74593e-80
6.34839e-80
5.95896e-80
5.58032e-80
5.21469e-80
4.86382e-80
4.52906e-80
4.2114e-80
3.9115e-80
3.62975e-80
3.36631e-80
3.12114e-80
2.89404e-80
2.68467e-80
2.49261e-80
2.31736e-80
2.15837e-80
2.01508e-80
1.88691e-80
1.77328e-80
1.67365e-80
1.58751e-80
1.51438e-80
1.45384e-80
1.40555e-80
1.36919e-80
1.34454e-80
1.33145e-80
1.32981e-80
1.33963e-80
1.36095e-80
1.39391e-80
1.4387e-80
1.4956e-80
1.56494e-80
1.6471e-80
1.74253e-80
1.85171e-80
1.97515e-80
2.11341e-80
2.26703e-80
2.43655e-80
2.62251e-80
2.82536e-80
3.04553e-80
3.28333e-80
3.53894e-80
3.8124e-80
4.10355e-80
4.41202e-80
4.73714e-80
5.07795e-80
5.43315e-80
5.80103e-80
6.17943e-80
6.56572e-80
6.95678e-80
7.34889e-80
7.73779e-80
8.11861e-80
8.48588e-80
8.83352e-80
9.15491e-80
9.44287e-80
9.68973e-80
9.88747e-80
1.00278e-79
1.01021e-79
1.26059e-79
1.25154e-79
1.23445e-79
1.21033e-79
1.18019e-79
1.145e-79
1.10567e-79
1.06309e-79
1.01804e-79
9.71271e-80
9.23446e-80
8.75157e-80
8.2693e-80
7.79218e-80
7.32411e-80
6.86833e-80
6.42755e-80
6.00392e-80
5.59911e-80
5.21438e-80
4.85059e-80
4.5083e-80
4.18775e-80
3.88896e-80
3.61178e-80
3.35587e-80
3.12077e-80
2.90596e-80
2.71081e-80
2.53471e-80
2.377e-80
2.23702e-80
2.11416e-80
2.00783e-80
1.91748e-80
1.84263e-80
1.78288e-80
1.73786e-80
1.70733e-80
1.69108e-80
1.68902e-80
1.70114e-80
1.72749e-80
1.76822e-80
1.82358e-80
1.89387e-80
1.97946e-80
2.08081e-80
2.19843e-80
2.33286e-80
2.48469e-80
2.65455e-80
2.84304e-80
3.05078e-80
3.27834e-80
3.52624e-80
3.79489e-80
4.08463e-80
4.3956e-80
4.72777e-80
5.08089e-80
5.45443e-80
5.84753e-80
6.25897e-80
6.68712e-80
7.12988e-80
7.58464e-80
8.04821e-80
8.51682e-80
8.98606e-80
9.45082e-80
9.90533e-80
1.03431e-79
1.0757e-79
1.11392e-79
1.14813e-79
1.17742e-79
1.20086e-79
1.21748e-79
1.22628e-79
1.51956e-79
1.50887e-79
1.48868e-79
1.46017e-79
1.42451e-79
1.38284e-79
1.33625e-79
1.28574e-79
1.23227e-79
1.1767e-79
1.11982e-79
1.06233e-79
1.00485e-79
9.47918e-80
8.92004e-80
8.37495e-80
7.84716e-80
7.33928e-80
6.85337e-80
6.39097e-80
5.9532e-80
5.54075e-80
5.15402e-80
4.7931e-80
4.45785e-80
4.14794e-80
3.8629e-80
3.60215e-80
3.365e-80
3.15077e-80
2.9587e-80
2.78808e-80
2.63818e-80
2.50834e-80
2.39794e-80
2.30642e-80
2.2333e-80
2.17819e-80
2.14078e-80
2.12085e-80
2.11829e-80
2.13308e-80
2.16528e-80
2.21508e-80
2.28273e-80
2.3686e-80
2.47311e-80
2.59679e-80
2.74021e-80
2.904e-80
3.08883e-80
3.29539e-80
3.52438e-80
3.77648e-80
4.05231e-80
4.35244e-80
4.67731e-80
5.02723e-80
5.40234e-80
5.80251e-80
6.22739e-80
6.67626e-80
7.14805e-80
7.64125e-80
8.15385e-80
8.68331e-80
9.22648e-80
9.77955e-80
1.0338e-79
1.08966e-79
1.14493e-79
1.19893e-79
1.25089e-79
1.29997e-79
1.34525e-79
1.38575e-79
1.4204e-79
1.44811e-79
1.46774e-79
1.47813e-79
1.82196e-79
1.80936e-79
1.78554e-79
1.75191e-79
1.70981e-79
1.6606e-79
1.60553e-79
1.5458e-79
1.48252e-79
1.4167e-79
1.34929e-79
1.28109e-79
1.21285e-79
1.14521e-79
1.07871e-79
1.01383e-79
9.50943e-80
8.90371e-80
8.32361e-80
7.77102e-80
7.24731e-80
6.7534e-80
6.2898e-80
5.85669e-80
5.45397e-80
5.08132e-80
4.73822e-80
4.42405e-80
4.13807e-80
3.87947e-80
3.64743e-80
3.44113e-80
3.25975e-80
3.10253e-80
2.96876e-80
2.85781e-80
2.76912e-80
2.70224e-80
2.65681e-80
2.63259e-80
2.62943e-80
2.64732e-80
2.68634e-80
2.74668e-80
2.82865e-80
2.93266e-80
3.0592e-80
3.20887e-80
3.38232e-80
3.58027e-80
3.80347e-80
4.05272e-80
4.32879e-80
4.63244e-80
4.96437e-80
5.32518e-80
5.71535e-80
6.13518e-80
6.58476e-80
7.0639e-80
7.5721e-80
8.10844e-80
8.67161e-80
9.25975e-80
9.87043e-80
1.05006e-79
1.11465e-79
1.18036e-79
1.24665e-79
1.3129e-79
1.3784e-79
1.44234e-79
1.50383e-79
1.56187e-79
1.61539e-79
1.66321e-79
1.70411e-79
1.7368e-79
1.75994e-79
1.77219e-79
2.17552e-79
2.16069e-79
2.13264e-79
2.09301e-79
2.0434e-79
1.98536e-79
1.9204e-79
1.84989e-79
1.77516e-79
1.6974e-79
1.61769e-79
1.53702e-79
1.45624e-79
1.37611e-79
1.29729e-79
1.22032e-79
1.14566e-79
1.0737e-79
1.00472e-79
9.38964e-80
8.76591e-80
8.17718e-80
7.62412e-80
7.10699e-80
6.62574e-80
6.18005e-80
5.76938e-80
5.39302e-80
5.05015e-80
4.73989e-80
4.46129e-80
4.21343e-80
3.99537e-80
3.80624e-80
3.64524e-80
3.51163e-80
3.40479e-80
3.32418e-80
3.26939e-80
3.24015e-80
3.2363e-80
3.25779e-80
3.30474e-80
3.37736e-80
3.47601e-80
3.60115e-80
3.75336e-80
3.9333e-80
4.14172e-80
4.37944e-80
4.64733e-80
4.94628e-80
5.27716e-80
5.64082e-80
6.03803e-80
6.46946e-80
6.93562e-80
7.4368e-80
7.97304e-80
8.54407e-80
9.14922e-80
9.78738e-80
1.04569e-79
1.11556e-79
1.18804e-79
1.26279e-79
1.33934e-79
1.41717e-79
1.49563e-79
1.574e-79
1.65143e-79
1.72698e-79
1.79958e-79
1.86808e-79
1.93121e-79
1.9876e-79
2.0358e-79
2.07431e-79
2.10157e-79
2.11598e-79
2.58931e-79
2.57186e-79
2.53886e-79
2.49221e-79
2.4338e-79
2.36545e-79
2.2889e-79
2.2058e-79
2.11769e-79
2.02596e-79
1.93189e-79
1.83664e-79
1.74122e-79
1.64652e-79
1.5533e-79
1.46223e-79
1.37384e-79
1.28858e-79
1.20682e-79
1.12882e-79
1.05478e-79
9.84854e-80
9.19117e-80
8.57609e-80
8.0033e-80
7.47246e-80
6.983e-80
6.53414e-80
6.12497e-80
5.75447e-80
5.42159e-80
5.12525e-80
4.86442e-80
4.63808e-80
4.44531e-80
4.28528e-80
4.15724e-80
4.06061e-80
3.99491e-80
3.95981e-80
3.95512e-80
3.98082e-80
4.03701e-80
4.12395e-80
4.24204e-80
4.39182e-80
4.57393e-80
4.78916e-80
5.03835e-80
5.32244e-80
5.64242e-80
5.99928e-80
6.39404e-80
6.82764e-80
7.30094e-80
7.81468e-80
8.3694e-80
8.9654e-80
9.60266e-80
1.02808e-79
1.0999e-79
1.17559e-79
1.25494e-79
1.3377e-79
1.42351e-79
1.51194e-79
1.60246e-79
1.69443e-79
1.78711e-79
1.87963e-79
1.971e-79
2.0601e-79
2.1457e-79
2.22643e-79
2.3008e-79
2.3672e-79
2.42395e-79
2.46928e-79
2.50135e-79
2.5183e-79
3.07394e-79
3.05342e-79
3.01461e-79
2.95974e-79
2.89102e-79
2.81058e-79
2.72048e-79
2.62264e-79
2.51886e-79
2.41079e-79
2.29993e-79
2.18762e-79
2.07508e-79
1.96333e-79
1.8533e-79
1.74574e-79
1.6413e-79
1.54052e-79
1.44382e-79
1.35152e-79
1.26387e-79
1.18103e-79
1.10311e-79
1.03017e-79
9.62207e-80
8.99185e-80
8.41044e-80
7.87696e-80
7.39039e-80
6.94959e-80
6.55334e-80
6.20044e-80
5.88968e-80
5.6199e-80
5.39005e-80
5.19916e-80
5.04639e-80
4.93105e-80
4.85259e-80
4.81064e-80
4.80498e-80
4.83557e-80
4.90254e-80
5.00618e-80
5.14695e-80
5.32547e-80
5.54249e-80
5.79888e-80
6.09564e-80
6.43383e-80
6.81458e-80
7.23904e-80
7.70833e-80
8.22354e-80
8.78564e-80
9.39543e-80
1.00535e-79
1.07602e-79
1.15154e-79
1.23186e-79
1.31687e-79
1.40642e-79
1.50026e-79
1.59808e-79
1.69945e-79
1.80388e-79
1.91072e-79
2.01923e-79
2.12852e-79
2.23759e-79
2.34526e-79
2.45023e-79
2.55104e-79
2.64608e-79
2.73361e-79
2.81174e-79
2.8785e-79
2.93181e-79
2.96952e-79
2.98945e-79
3.64183e-79
3.61772e-79
3.5721e-79
3.50759e-79
3.42679e-79
3.33219e-79
3.22621e-79
3.1111e-79
2.98897e-79
2.86175e-79
2.73122e-79
2.59896e-79
2.46637e-79
2.33468e-79
2.20496e-79
2.07812e-79
1.95491e-79
1.83597e-79
1.7218e-79
1.61278e-79
1.5092e-79
1.41128e-79
1.31913e-79
1.23283e-79
1.15237e-79
1.07774e-79
1.00885e-79
9.45617e-80
8.87918e-80
8.35625e-80
7.88598e-80
7.46699e-80
7.0979e-80
6.77738e-80
6.5042e-80
6.27726e-80
6.09559e-80
5.95839e-80
5.86503e-80
5.81507e-80
5.80826e-80
5.84456e-80
5.9241e-80
6.04724e-80
6.21449e-80
6.42657e-80
6.68434e-80
6.98882e-80
7.34113e-80
7.74251e-80
8.19424e-80
8.69763e-80
9.25399e-80
9.86453e-80
1.05304e-79
1.12524e-79
1.20312e-79
1.28672e-79
1.37602e-79
1.47095e-79
1.5714e-79
1.67715e-79
1.78793e-79
1.90336e-79
2.02294e-79
2.14606e-79
2.272e-79
2.39986e-79
2.52861e-79
2.65705e-79
2.78381e-79
2.90736e-79
3.02597e-79
3.13778e-79
3.24072e-79
3.33261e-79
3.4111e-79
3.47376e-79
3.51807e-79
3.5415e-79
4.30757e-79
4.27924e-79
4.22564e-79
4.14983e-79
4.05486e-79
3.94366e-79
3.81906e-79
3.6837e-79
3.54006e-79
3.39042e-79
3.23684e-79
3.08119e-79
2.92512e-79
2.77007e-79
2.6173e-79
2.46788e-79
2.3227e-79
2.18251e-79
2.04788e-79
1.9193e-79
1.79709e-79
1.68151e-79
1.57272e-79
1.47078e-79
1.37572e-79
1.2875e-79
1.20605e-79
1.13126e-79
1.06298e-79
1.00109e-79
9.45407e-80
8.95781e-80
8.52052e-80
8.14067e-80
7.81684e-80
7.54776e-80
7.3323e-80
7.16954e-80
7.05874e-80
6.99941e-80
6.99125e-80
7.0342e-80
7.12844e-80
7.27435e-80
7.47255e-80
7.72385e-80
8.02925e-80
8.38992e-80
8.80716e-80
9.28239e-80
9.81708e-80
1.04128e-79
1.10709e-79
1.17929e-79
1.258e-79
1.34332e-79
1.43533e-79
1.53405e-79
1.63947e-79
1.7515e-79
1.87e-79
1.99471e-79
2.12531e-79
2.26135e-79
2.40224e-79
2.54727e-79
2.69557e-79
2.84609e-79
2.99762e-79
3.14875e-79
3.29788e-79
3.44319e-79
3.58268e-79
3.71413e-79
3.83515e-79
3.94315e-79
4.03539e-79
4.10902e-79
4.16109e-79
4.1886e-79
5.08826e-79
5.05498e-79
4.99201e-79
4.90295e-79
4.79136e-79
4.66069e-79
4.51425e-79
4.35516e-79
4.1863e-79
4.01037e-79
3.82977e-79
3.64671e-79
3.46312e-79
3.28069e-79
3.10091e-79
2.92504e-79
2.75412e-79
2.58902e-79
2.43045e-79
2.27895e-79
2.13493e-79
1.99868e-79
1.87039e-79
1.75015e-79
1.638e-79
1.53389e-79
1.43773e-79
1.3494e-79
1.26876e-79
1.19563e-79
1.12982e-79
1.07115e-79
1.01945e-79
9.7452e-80
9.36212e-80
9.04372e-80
8.78873e-80
8.59606e-80
8.46486e-80
8.39456e-80
8.3848e-80
8.43553e-80
8.54694e-80
8.71949e-80
8.95387e-80
9.25104e-80
9.61214e-80
1.00385e-79
1.05317e-79
1.10933e-79
1.17251e-79
1.24287e-79
1.32059e-79
1.40583e-79
1.49873e-79
1.59941e-79
1.70795e-79
1.82437e-79
1.94866e-79
2.08071e-79
2.22033e-79
2.36725e-79
2.52107e-79
2.68124e-79
2.84709e-79
3.01778e-79
3.19227e-79
3.36935e-79
3.54758e-79
3.7253e-79
3.90064e-79
4.07147e-79
4.23543e-79
4.38992e-79
4.53213e-79
4.65902e-79
4.7674e-79
4.85389e-79
4.91505e-79
4.94737e-79
6.00397e-79
5.96488e-79
5.89092e-79
5.78631e-79
5.65522e-79
5.50171e-79
5.32966e-79
5.14272e-79
4.94429e-79
4.73751e-79
4.52524e-79
4.31003e-79
4.09417e-79
3.87966e-79
3.66822e-79
3.46133e-79
3.26024e-79
3.06596e-79
2.87933e-79
2.70098e-79
2.5314e-79
2.37093e-79
2.21981e-79
2.07814e-79
1.94596e-79
1.82323e-79
1.70986e-79
1.60569e-79
1.51056e-79
1.42427e-79
1.34661e-79
1.27736e-79
1.21631e-79
1.16326e-79
1.11801e-79
1.0804e-79
1.05027e-79
1.0275e-79
1.012e-79
1.00368e-79
1.00252e-79
1.0085e-79
1.02165e-79
1.04202e-79
1.06969e-79
1.10478e-79
1.1474e-79
1.19773e-79
1.25594e-79
1.32221e-79
1.39675e-79
1.47975e-79
1.57141e-79
1.67192e-79
1.78143e-79
1.90009e-79
2.02798e-79
2.16514e-79
2.31152e-79
2.46702e-79
2.6314e-79
2.80433e-79
2.98534e-79
3.1738e-79
3.36891e-79
3.56966e-79
3.77486e-79
3.98307e-79
4.1926e-79
4.40151e-79
4.60758e-79
4.80833e-79
5.00098e-79
5.1825e-79
5.34956e-79
5.49862e-79
5.62591e-79
5.72749e-79
5.79932e-79
5.83728e-79
7.07823e-79
7.03233e-79
6.94547e-79
6.82262e-79
6.66865e-79
6.48835e-79
6.28624e-79
6.06663e-79
5.83351e-79
5.59056e-79
5.34112e-79
5.08822e-79
4.83451e-79
4.58236e-79
4.33379e-79
4.09054e-79
3.85407e-79
3.62559e-79
3.40605e-79
3.19623e-79
2.9967e-79
2.80785e-79
2.62996e-79
2.46318e-79
2.30754e-79
2.163e-79
2.02944e-79
1.90672e-79
1.79462e-79
1.69292e-79
1.60137e-79
1.51972e-79
1.44773e-79
1.38516e-79
1.33179e-79
1.28742e-79
1.25187e-79
1.225e-79
1.2067e-79
1.19688e-79
1.19549e-79
1.20254e-79
1.21804e-79
1.24206e-79
1.27469e-79
1.31605e-79
1.36631e-79
1.42565e-79
1.49426e-79
1.57238e-79
1.66022e-79
1.75802e-79
1.866e-79
1.9844e-79
2.11338e-79
2.2531e-79
2.40367e-79
2.56511e-79
2.73739e-79
2.92036e-79
3.11376e-79
3.31718e-79
3.53007e-79
3.75169e-79
3.98108e-79
4.21709e-79
4.4583e-79
4.703e-79
4.94923e-79
5.19471e-79
5.43684e-79
5.67268e-79
5.89899e-79
6.1122e-79
6.30842e-79
6.48348e-79
6.63297e-79
6.75226e-79
6.8366e-79
6.88117e-79
8.33869e-79
8.2848e-79
8.1828e-79
8.03853e-79
7.85772e-79
7.64597e-79
7.4086e-79
7.15066e-79
6.87683e-79
6.59143e-79
6.2984e-79
6.00127e-79
5.70317e-79
5.40687e-79
5.11475e-79
4.82886e-79
4.5509e-79
4.28229e-79
4.02418e-79
3.77745e-79
3.54279e-79
3.32067e-79
3.11141e-79
2.91518e-79
2.73204e-79
2.56193e-79
2.40473e-79
2.26025e-79
2.12826e-79
2.0085e-79
1.90068e-79
1.80451e-79
1.7197e-79
1.64598e-79
1.58309e-79
1.5308e-79
1.4889e-79
1.45722e-79
1.43564e-79
1.42405e-79
1.42241e-79
1.4307e-79
1.44895e-79
1.47724e-79
1.51567e-79
1.5644e-79
1.6236e-79
1.69348e-79
1.77429e-79
1.86628e-79
1.9697e-79
2.08484e-79
2.21196e-79
2.35131e-79
2.5031e-79
2.66751e-79
2.84466e-79
3.03457e-79
3.23721e-79
3.45238e-79
3.67979e-79
3.91896e-79
4.16923e-79
4.42973e-79
4.69934e-79
4.9767e-79
5.26012e-79
5.54764e-79
5.83692e-79
6.1253e-79
6.40971e-79
6.68672e-79
6.95252e-79
7.20292e-79
7.43334e-79
7.63892e-79
7.81445e-79
7.95452e-79
8.05355e-79
8.10587e-79
9.81776e-79
9.75449e-79
9.63473e-79
9.46532e-79
9.25302e-79
9.00436e-79
8.72561e-79
8.42268e-79
8.10109e-79
7.76589e-79
7.4217e-79
7.07267e-79
6.72249e-79
6.37439e-79
6.03119e-79
5.69526e-79
5.36863e-79
5.05297e-79
4.7496e-79
4.45959e-79
4.18373e-79
3.92259e-79
3.67654e-79
3.44578e-79
3.23039e-79
3.0303e-79
2.84538e-79
2.6754e-79
2.5201e-79
2.37916e-79
2.25226e-79
2.13906e-79
2.03923e-79
1.95244e-79
1.87839e-79
1.81681e-79
1.76747e-79
1.73016e-79
1.70473e-79
1.69107e-79
1.68912e-79
1.69887e-79
1.72035e-79
1.75364e-79
1.79888e-79
1.85623e-79
1.9259e-79
2.00815e-79
2.10325e-79
2.21149e-79
2.33318e-79
2.46865e-79
2.6182e-79
2.78211e-79
2.96064e-79
3.15399e-79
3.36229e-79
3.58559e-79
3.82382e-79
4.07676e-79
4.34406e-79
4.62515e-79
4.91925e-79
5.22535e-79
5.54214e-79
5.86799e-79
6.20094e-79
6.53868e-79
6.87847e-79
7.21716e-79
7.55119e-79
7.8765e-79
8.18864e-79
8.48266e-79
8.75323e-79
8.99461e-79
9.2007e-79
9.36515e-79
9.48141e-79
9.54284e-79
1.15535e-78
1.14792e-78
1.13386e-78
1.11397e-78
1.08904e-78
1.05985e-78
1.02712e-78
9.91544e-79
9.53778e-79
9.14414e-79
8.73992e-79
8.33e-79
7.9187e-79
7.50983e-79
7.10667e-79
6.71205e-79
6.32832e-79
5.95744e-79
5.60099e-79
5.26021e-79
4.93602e-79
4.6291e-79
4.3399e-79
4.06865e-79
3.81543e-79
3.58018e-79
3.36274e-79
3.16286e-79
2.98022e-79
2.81445e-79
2.66518e-79
2.53202e-79
2.41457e-79
2.31245e-79
2.22532e-79
2.15285e-79
2.09478e-79
2.05086e-79
2.02093e-79
2.00484e-79
2.00253e-79
2.01398e-79
2.03924e-79
2.0784e-79
2.13161e-79
2.19907e-79
2.28102e-79
2.37776e-79
2.48961e-79
2.61691e-79
2.76003e-79
2.91932e-79
3.09516e-79
3.28788e-79
3.49776e-79
3.72505e-79
3.96989e-79
4.23234e-79
4.5123e-79
4.80954e-79
5.12362e-79
5.45389e-79
5.79941e-79
6.15901e-79
6.53112e-79
6.91386e-79
7.30493e-79
7.70159e-79
8.10063e-79
8.49837e-79
8.89061e-79
9.27261e-79
9.63911e-79
9.98433e-79
1.0302e-78
1.05854e-78
1.08273e-78
1.10204e-78
1.11569e-78
1.1229e-78
1.35906e-78
1.35034e-78
1.33383e-78
1.31048e-78
1.28121e-78
1.24693e-78
1.2085e-78
1.16673e-78
1.12239e-78
1.07617e-78
1.0287e-78
9.8056e-79
9.32258e-79
8.84239e-79
8.36889e-79
7.90538e-79
7.45465e-79
7.019e-79
6.60026e-79
6.1999e-79
5.81902e-79
5.4584e-79
5.11857e-79
4.79981e-79
4.50222e-79
4.22573e-79
3.97015e-79
3.73519e-79
3.52048e-79
3.32559e-79
3.15009e-79
2.99351e-79
2.85539e-79
2.7353e-79
2.63282e-79
2.54759e-79
2.47928e-79
2.42762e-79
2.39239e-79
2.37346e-79
2.37072e-79
2.38418e-79
2.41386e-79
2.4599e-79
2.52245e-79
2.60176e-79
2.69811e-79
2.81185e-79
2.94334e-79
3.09298e-79
3.26122e-79
3.44846e-79
3.65513e-79
3.88163e-79
4.12828e-79
4.39538e-79
4.68308e-79
4.99145e-79
5.32037e-79
5.66957e-79
6.03853e-79
6.42648e-79
6.83234e-79
7.25468e-79
7.69172e-79
8.14121e-79
8.60046e-79
9.06625e-79
9.53483e-79
1.00019e-78
1.04624e-78
1.09109e-78
1.13412e-78
1.17465e-78
1.21195e-78
1.24522e-78
1.27362e-78
1.29629e-78
1.31231e-78
1.32077e-78
1.59815e-78
1.58791e-78
1.56853e-78
1.54112e-78
1.50676e-78
1.46651e-78
1.42139e-78
1.37235e-78
1.32028e-78
1.26601e-78
1.21027e-78
1.15375e-78
1.09703e-78
1.04064e-78
9.85032e-79
9.30598e-79
8.77663e-79
8.26495e-79
7.77312e-79
7.30286e-79
6.85545e-79
6.43182e-79
6.03259e-79
5.65809e-79
5.30844e-79
4.98357e-79
4.68325e-79
4.40714e-79
4.1548e-79
3.92575e-79
3.71948e-79
3.53542e-79
3.37307e-79
3.23189e-79
3.11142e-79
3.01121e-79
2.93089e-79
2.87014e-79
2.82871e-79
2.80643e-79
2.8032e-79
2.81899e-79
2.85387e-79
2.90797e-79
2.98148e-79
3.07469e-79
3.18793e-79
3.32159e-79
3.47611e-79
3.65197e-79
3.84966e-79
4.06968e-79
4.31252e-79
4.57864e-79
4.86843e-79
5.18222e-79
5.5202e-79
5.88243e-79
6.2688e-79
6.67896e-79
7.11231e-79
7.56793e-79
8.04457e-79
8.54055e-79
9.05377e-79
9.58158e-79
1.01208e-78
1.06678e-78
1.12179e-78
1.17663e-78
1.2307e-78
1.28335e-78
1.33387e-78
1.38145e-78
1.42523e-78
1.46429e-78
1.49763e-78
1.52424e-78
1.54305e-78
1.55299e-78
1.87878e-78
1.86676e-78
1.844e-78
1.81182e-78
1.77148e-78
1.72423e-78
1.67125e-78
1.61368e-78
1.55255e-78
1.48883e-78
1.42339e-78
1.35702e-78
1.29042e-78
1.2242e-78
1.15891e-78
1.09499e-78
1.03283e-78
9.72738e-79
9.14978e-79
8.59748e-79
8.072e-79
7.57443e-79
7.1055e-79
6.6656e-79
6.25487e-79
5.87322e-79
5.5204e-79
5.196e-79
4.89952e-79
4.6304e-79
4.38801e-79
4.17173e-79
3.98094e-79
3.81503e-79
3.67344e-79
3.55566e-79
3.46124e-79
3.38983e-79
3.34112e-79
3.31492e-79
3.3111e-79
3.32964e-79
3.37061e-79
3.43416e-79
3.52052e-79
3.63003e-79
3.76308e-79
3.92011e-79
4.10166e-79
4.30826e-79
4.54051e-79
4.79898e-79
5.08425e-79
5.39685e-79
5.73724e-79
6.10581e-79
6.50277e-79
6.92821e-79
7.38198e-79
7.86366e-79
8.37256e-79
8.90759e-79
9.46729e-79
1.00497e-78
1.06523e-78
1.1272e-78
1.19051e-78
1.25473e-78
1.31932e-78
1.38369e-78
1.44717e-78
1.50899e-78
1.56829e-78
1.62415e-78
1.67554e-78
1.72139e-78
1.76053e-78
1.79176e-78
1.81384e-78
1.82551e-78
2.20816e-78
2.19405e-78
2.16734e-78
2.12955e-78
2.08219e-78
2.02672e-78
1.96453e-78
1.89694e-78
1.82517e-78
1.75036e-78
1.67353e-78
1.5956e-78
1.51741e-78
1.43967e-78
1.363e-78
1.28795e-78
1.21495e-78
1.14439e-78
1.07657e-78
1.01171e-78
9.49999e-79
8.91565e-79
8.36492e-79
7.84827e-79
7.36585e-79
6.91759e-79
6.50316e-79
6.1221e-79
5.77383e-79
5.45768e-79
5.17292e-79
4.91883e-79
4.69467e-79
4.49973e-79
4.33336e-79
4.19496e-79
4.08402e-79
4.00009e-79
3.94284e-79
3.91203e-79
3.90752e-79
3.92928e-79
3.97739e-79
4.05202e-79
4.15347e-79
4.2821e-79
4.43837e-79
4.62283e-79
4.83607e-79
5.07875e-79
5.35153e-79
5.65512e-79
5.99016e-79
6.3573e-79
6.75707e-79
7.18991e-79
7.65609e-79
8.15568e-79
8.68853e-79
9.25414e-79
9.85169e-79
1.04799e-78
1.11371e-78
1.18209e-78
1.25283e-78
1.32559e-78
1.39993e-78
1.47531e-78
1.55114e-78
1.62671e-78
1.70123e-78
1.7738e-78
1.84341e-78
1.90898e-78
1.96932e-78
2.02313e-78
2.06908e-78
2.10574e-78
2.13165e-78
2.14535e-78
2.59478e-78
2.57822e-78
2.54686e-78
2.5025e-78
2.44691e-78
2.38178e-78
2.30877e-78
2.22942e-78
2.14517e-78
2.05733e-78
1.96713e-78
1.87565e-78
1.78384e-78
1.69257e-78
1.60256e-78
1.51443e-78
1.42873e-78
1.34588e-78
1.26624e-78
1.19008e-78
1.11762e-78
1.049e-78
9.84328e-79
9.23655e-79
8.67002e-79
8.14357e-79
7.65684e-79
7.20929e-79
6.80024e-79
6.4289e-79
6.09442e-79
5.79596e-79
5.53264e-79
5.30364e-79
5.10819e-79
4.9456e-79
4.81526e-79
4.71665e-79
4.64937e-79
4.61315e-79
4.60782e-79
4.63336e-79
4.68984e-79
4.77748e-79
4.89662e-79
5.04768e-79
5.23121e-79
5.44784e-79
5.69827e-79
5.98326e-79
6.30361e-79
6.66013e-79
7.05358e-79
7.48471e-79
7.95415e-79
8.4624e-79
9.00979e-79
9.59641e-79
1.02221e-78
1.08862e-78
1.15877e-78
1.23253e-78
1.30968e-78
1.38996e-78
1.47302e-78
1.55844e-78
1.6457e-78
1.7342e-78
1.82321e-78
1.91193e-78
1.99941e-78
2.08459e-78
2.16631e-78
2.24328e-78
2.3141e-78
2.37727e-78
2.4312e-78
2.47424e-78
2.50465e-78
2.52073e-78
3.0486e-78
3.02915e-78
2.99234e-78
2.94027e-78
2.875e-78
2.79855e-78
2.71284e-78
2.61969e-78
2.52077e-78
2.41766e-78
2.31177e-78
2.20436e-78
2.09659e-78
1.98942e-78
1.88375e-78
1.78028e-78
1.67966e-78
1.58239e-78
1.48888e-78
1.39946e-78
1.31438e-78
1.23381e-78
1.15787e-78
1.08662e-78
1.02009e-78
9.58273e-79
9.01115e-79
8.48557e-79
8.00518e-79
7.56907e-79
7.17625e-79
6.8257e-79
6.51643e-79
6.24746e-79
6.0179e-79
5.82691e-79
5.67379e-79
5.55795e-79
5.4789e-79
5.43633e-79
5.43005e-79
5.46001e-79
5.52631e-79
5.62921e-79
5.7691e-79
5.94648e-79
6.16198e-79
6.41636e-79
6.71043e-79
7.04508e-79
7.42125e-79
7.83986e-79
8.30186e-79
8.80807e-79
9.35926e-79
9.95602e-79
1.05987e-78
1.12875e-78
1.2022e-78
1.28017e-78
1.36253e-78
1.44913e-78
1.5397e-78
1.63394e-78
1.73145e-78
1.83172e-78
1.93416e-78
2.03805e-78
2.14254e-78
2.24668e-78
2.34937e-78
2.44936e-78
2.54528e-78
2.63563e-78
2.71876e-78
2.79291e-78
2.85622e-78
2.90673e-78
2.94243e-78
2.9613e-78
3.58129e-78
3.55847e-78
3.51526e-78
3.45413e-78
3.37751e-78
3.28776e-78
3.18715e-78
3.07779e-78
2.96167e-78
2.84062e-78
2.7163e-78
2.59021e-78
2.46368e-78
2.33788e-78
2.21381e-78
2.09234e-78
1.97421e-78
1.86e-78
1.75022e-78
1.64523e-78
1.54534e-78
1.45074e-78
1.36157e-78
1.27792e-78
1.1998e-78
1.12721e-78
1.0601e-78
9.9838e-79
9.41969e-79
8.90756e-79
8.44626e-79
8.0346e-79
7.67139e-79
7.35551e-79
7.0859e-79
6.86159e-79
6.68174e-79
6.54567e-79
6.45281e-79
6.40278e-79
6.39536e-79
6.43051e-79
6.50834e-79
6.62914e-79
6.79337e-79
7.00163e-79
7.25466e-79
7.55333e-79
7.8986e-79
8.29153e-79
8.73318e-79
9.22468e-79
9.7671e-79
1.03614e-78
1.10086e-78
1.17092e-78
1.24637e-78
1.32723e-78
1.41346e-78
1.505e-78
1.60169e-78
1.70334e-78
1.80967e-78
1.9203e-78
2.03477e-78
2.15248e-78
2.27272e-78
2.39467e-78
2.51733e-78
2.63957e-78
2.76011e-78
2.87748e-78
2.99008e-78
3.09613e-78
3.19371e-78
3.28074e-78
3.35505e-78
3.41434e-78
3.45625e-78
3.47839e-78
4.20659e-78
4.17979e-78
4.12907e-78
4.05731e-78
3.96736e-78
3.86201e-78
3.74389e-78
3.61551e-78
3.4792e-78
3.3371e-78
3.19115e-78
3.04313e-78
2.89459e-78
2.7469e-78
2.60125e-78
2.45865e-78
2.31996e-78
2.18588e-78
2.05699e-78
1.93373e-78
1.81645e-78
1.70538e-78
1.60069e-78
1.50248e-78
1.41076e-78
1.32553e-78
1.24672e-78
1.17426e-78
1.10802e-78
1.04788e-78
9.93717e-79
9.45376e-79
9.02726e-79
8.65632e-79
8.3397e-79
8.07627e-79
7.86506e-79
7.70524e-79
7.59616e-79
7.53738e-79
7.52863e-79
7.56986e-79
7.66121e-79
7.80301e-79
7.99581e-79
8.24031e-79
8.53737e-79
8.88801e-79
9.29337e-79
9.75467e-79
1.02732e-78
1.08502e-78
1.1487e-78
1.21848e-78
1.29445e-78
1.3767e-78
1.46528e-78
1.5602e-78
1.66143e-78
1.76888e-78
1.88239e-78
2.00172e-78
2.12654e-78
2.25641e-78
2.39077e-78
2.52894e-78
2.6701e-78
2.81324e-78
2.95722e-78
3.10071e-78