/*--------------------------------*- C++ -*----------------------------------*\
  =========                 |
  \\      /  F ield         | OpenFOAM: The Open Source CFD Toolbox
   \\    /   O peration     | Website:  https://openfoam.org
    \\  /    A nd           | Version:  11
     \\/     M anipulation  |
\*---------------------------------------------------------------------------*/
FoamFile
{
    format      ascii;
    class       volScalarField;
    location    "623";
    object      p;
}
// * * * * * * * * * * * * * * * * * * * * * * * * * * * * * * * * * * * * * //

dimensions      [0 2 -2 0 0 0 0];

internalField   nonuniform List<scalar> 
427520
(
3.04284
2.99104
2.95676
2.93816
2.92625
2.91773
2.91154
2.907
2.90359
2.90098
2.89893
2.89729
2.89595
2.89484
2.89391
2.89311
2.89243
2.89184
2.89133
2.89088
2.89048
2.89013
2.88981
2.88953
2.88929
2.88906
2.88887
2.88869
2.88854
2.8884
2.88828
2.88817
2.88808
2.888
2.88793
2.88788
2.88784
2.8878
2.88778
2.88777
2.88777
2.88778
2.8878
2.88784
2.88788
2.88793
2.888
2.88808
2.88817
2.88828
2.8884
2.88854
2.88869
2.88887
2.88906
2.88929
2.88953
2.88981
2.89013
2.89048
2.89088
2.89133
2.89184
2.89243
2.89311
2.89391
2.89484
2.89595
2.89729
2.89893
2.90098
2.90359
2.907
2.91154
2.91773
2.92625
2.93816
2.95676
2.99104
3.04284
2.94452
2.93851
2.93151
2.92492
2.91906
2.91405
2.90988
2.90646
2.90365
2.90135
2.89944
2.89785
2.89651
2.89538
2.89442
2.89359
2.89287
2.89225
2.8917
2.89122
2.89079
2.89042
2.89008
2.88978
2.88952
2.88928
2.88907
2.88888
2.88872
2.88857
2.88844
2.88833
2.88823
2.88814
2.88807
2.88802
2.88797
2.88794
2.88791
2.8879
2.8879
2.88791
2.88794
2.88797
2.88802
2.88807
2.88814
2.88823
2.88833
2.88844
2.88857
2.88872
2.88888
2.88907
2.88928
2.88952
2.88978
2.89008
2.89042
2.89079
2.89122
2.8917
2.89225
2.89287
2.89359
2.89442
2.89538
2.89651
2.89785
2.89944
2.90135
2.90365
2.90646
2.90988
2.91405
2.91906
2.92492
2.93151
2.93851
2.94452
2.91457
2.91632
2.91665
2.91492
2.91234
2.90962
2.90704
2.90467
2.90257
2.90072
2.89912
2.89772
2.89651
2.89546
2.89455
2.89374
2.89304
2.89242
2.89188
2.89139
2.89096
2.89058
2.89024
2.88994
2.88967
2.88942
2.88921
2.88901
2.88884
2.88869
2.88856
2.88844
2.88834
2.88825
2.88818
2.88812
2.88807
2.88803
2.88801
2.888
2.888
2.88801
2.88803
2.88807
2.88812
2.88818
2.88825
2.88834
2.88844
2.88856
2.88869
2.88884
2.88901
2.88921
2.88942
2.88967
2.88994
2.89024
2.89058
2.89096
2.89139
2.89188
2.89242
2.89304
2.89374
2.89455
2.89546
2.89651
2.89772
2.89912
2.90072
2.90257
2.90467
2.90704
2.90962
2.91234
2.91492
2.91665
2.91632
2.91457
2.90373
2.90596
2.90739
2.9073
2.90635
2.90504
2.90358
2.9021
2.90067
2.89934
2.89811
2.897
2.89599
2.89509
2.89429
2.89357
2.89293
2.89236
2.89185
2.89139
2.89098
2.89061
2.89028
2.88998
2.88971
2.88947
2.88926
2.88907
2.8889
2.88875
2.88861
2.8885
2.88839
2.88831
2.88823
2.88817
2.88813
2.88809
2.88807
2.88805
2.88805
2.88807
2.88809
2.88813
2.88817
2.88823
2.88831
2.88839
2.8885
2.88861
2.88875
2.8889
2.88907
2.88926
2.88947
2.88971
2.88998
2.89028
2.89061
2.89098
2.89139
2.89185
2.89236
2.89293
2.89357
2.89429
2.89509
2.89599
2.897
2.89811
2.89934
2.90067
2.9021
2.90358
2.90504
2.90635
2.9073
2.90739
2.90596
2.90373
2.89778
2.89968
2.90116
2.90168
2.90157
2.90107
2.90035
2.89951
2.89861
2.8977
2.89682
2.89598
2.89519
2.89447
2.8938
2.89319
2.89263
2.89213
2.89167
2.89125
2.89087
2.89053
2.89022
2.88994
2.88968
2.88946
2.88925
2.88907
2.8889
2.88875
2.88862
2.88851
2.88841
2.88832
2.88825
2.88819
2.88815
2.88811
2.88809
2.88808
2.88808
2.88809
2.88811
2.88815
2.88819
2.88825
2.88832
2.88841
2.88851
2.88862
2.88875
2.8889
2.88907
2.88925
2.88946
2.88968
2.88994
2.89022
2.89053
2.89087
2.89125
2.89167
2.89213
2.89263
2.89319
2.8938
2.89447
2.89519
2.89598
2.89682
2.8977
2.89861
2.89951
2.90035
2.90107
2.90157
2.90168
2.90116
2.89968
2.89778
2.89427
2.89574
2.89701
2.8977
2.89794
2.89787
2.89758
2.89715
2.89662
2.89603
2.89543
2.89483
2.89424
2.89368
2.89315
2.89265
2.89219
2.89176
2.89136
2.89099
2.89066
2.89035
2.89007
2.88981
2.88958
2.88937
2.88918
2.889
2.88885
2.88871
2.88859
2.88848
2.88838
2.8883
2.88823
2.88818
2.88813
2.8881
2.88807
2.88806
2.88806
2.88807
2.8881
2.88813
2.88818
2.88823
2.8883
2.88838
2.88848
2.88859
2.88871
2.88885
2.889
2.88918
2.88937
2.88958
2.88981
2.89007
2.89035
2.89066
2.89099
2.89136
2.89176
2.89219
2.89265
2.89315
2.89368
2.89424
2.89483
2.89543
2.89603
2.89662
2.89715
2.89758
2.89787
2.89794
2.8977
2.89701
2.89574
2.89427
2.89199
2.89311
2.89416
2.89482
2.89519
2.89532
2.89527
2.89509
2.89481
2.89446
2.89407
2.89366
2.89324
2.89282
2.89241
2.89202
2.89164
2.89129
2.89096
2.89065
2.89036
2.89009
2.88984
2.88962
2.88941
2.88922
2.88904
2.88889
2.88874
2.88862
2.8885
2.8884
2.88831
2.88824
2.88817
2.88812
2.88808
2.88805
2.88802
2.88801
2.88801
2.88802
2.88805
2.88808
2.88812
2.88817
2.88824
2.88831
2.8884
2.8885
2.88862
2.88874
2.88889
2.88904
2.88922
2.88941
2.88962
2.88984
2.89009
2.89036
2.89065
2.89096
2.89129
2.89164
2.89202
2.89241
2.89282
2.89324
2.89366
2.89407
2.89446
2.89481
2.89509
2.89527
2.89532
2.89519
2.89482
2.89416
2.89311
2.89199
2.89038
2.89125
2.89209
2.89268
2.89307
2.89329
2.89337
2.89334
2.89322
2.89303
2.89279
2.89252
2.89223
2.89193
2.89163
2.89133
2.89104
2.89076
2.89049
2.89024
2.88999
2.88977
2.88956
2.88936
2.88918
2.88901
2.88886
2.88872
2.88859
2.88848
2.88837
2.88828
2.8882
2.88813
2.88807
2.88803
2.88799
2.88796
2.88794
2.88793
2.88793
2.88794
2.88796
2.88799
2.88803
2.88807
2.88813
2.8882
2.88828
2.88837
2.88848
2.88859
2.88872
2.88886
2.88901
2.88918
2.88936
2.88956
2.88977
2.88999
2.89024
2.89049
2.89076
2.89104
2.89133
2.89163
2.89193
2.89223
2.89252
2.89279
2.89303
2.89322
2.89334
2.89337
2.89329
2.89307
2.89268
2.89209
2.89125
2.89038
2.88917
2.88985
2.89053
2.89104
2.89141
2.89166
2.89181
2.89186
2.89184
2.89176
2.89163
2.89146
2.89127
2.89107
2.89085
2.89063
2.89041
2.89019
2.88998
2.88978
2.88958
2.8894
2.88922
2.88906
2.8889
2.88876
2.88863
2.88851
2.8884
2.8883
2.88821
2.88813
2.88805
2.88799
2.88794
2.8879
2.88786
2.88784
2.88782
2.88781
2.88781
2.88782
2.88784
2.88786
2.8879
2.88794
2.88799
2.88805
2.88813
2.88821
2.8883
2.8884
2.88851
2.88863
2.88876
2.8889
2.88906
2.88922
2.8894
2.88958
2.88978
2.88998
2.89019
2.89041
2.89063
2.89085
2.89107
2.89127
2.89146
2.89163
2.89176
2.89184
2.89186
2.89181
2.89166
2.89141
2.89104
2.89053
2.88985
2.88917
2.88821
2.88876
2.88932
2.88975
2.89009
2.89034
2.89051
2.89061
2.89065
2.89063
2.89058
2.89049
2.89037
2.89024
2.89009
2.88994
2.88978
2.88961
2.88945
2.8893
2.88914
2.88899
2.88885
2.88872
2.88859
2.88847
2.88836
2.88826
2.88817
2.88808
2.888
2.88793
2.88787
2.88782
2.88777
2.88773
2.8877
2.88768
2.88767
2.88766
2.88766
2.88767
2.88768
2.8877
2.88773
2.88777
2.88782
2.88787
2.88793
2.888
2.88808
2.88817
2.88826
2.88836
2.88847
2.88859
2.88872
2.88885
2.88899
2.88914
2.8893
2.88945
2.88961
2.88978
2.88994
2.89009
2.89024
2.89037
2.89049
2.89058
2.89063
2.89065
2.89061
2.89051
2.89034
2.89009
2.88975
2.88932
2.88876
2.88821
2.88743
2.88788
2.88834
2.88871
2.88901
2.88925
2.88943
2.88955
2.88962
2.88965
2.88964
2.8896
2.88954
2.88946
2.88937
2.88926
2.88915
2.88904
2.88892
2.8888
2.88868
2.88857
2.88846
2.88835
2.88825
2.88815
2.88806
2.88798
2.8879
2.88783
2.88777
2.88771
2.88766
2.88761
2.88757
2.88754
2.88752
2.8875
2.88748
2.88748
2.88748
2.88748
2.8875
2.88752
2.88754
2.88757
2.88761
2.88766
2.88771
2.88777
2.88783
2.8879
2.88798
2.88806
2.88815
2.88825
2.88835
2.88846
2.88857
2.88868
2.8888
2.88892
2.88904
2.88915
2.88926
2.88937
2.88946
2.88954
2.8896
2.88964
2.88965
2.88962
2.88955
2.88943
2.88925
2.88901
2.88871
2.88834
2.88788
2.88743
2.88678
2.88715
2.88753
2.88785
2.88812
2.88833
2.8885
2.88863
2.88872
2.88878
2.8888
2.8888
2.88878
2.88874
2.88868
2.88862
2.88855
2.88847
2.88838
2.8883
2.88821
2.88813
2.88805
2.88796
2.88789
2.88781
2.88774
2.88768
2.88761
2.88756
2.8875
2.88746
2.88742
2.88738
2.88735
2.88732
2.8873
2.88728
2.88727
2.88727
2.88727
2.88727
2.88728
2.8873
2.88732
2.88735
2.88738
2.88742
2.88746
2.8875
2.88756
2.88761
2.88768
2.88774
2.88781
2.88789
2.88796
2.88805
2.88813
2.88821
2.8883
2.88838
2.88847
2.88855
2.88862
2.88868
2.88874
2.88878
2.8888
2.8888
2.88878
2.88872
2.88863
2.8885
2.88833
2.88812
2.88785
2.88753
2.88715
2.88678
2.88622
2.88653
2.88685
2.88713
2.88736
2.88755
2.88771
2.88784
2.88794
2.88801
2.88805
2.88808
2.88808
2.88807
2.88804
2.88801
2.88797
2.88792
2.88786
2.88781
2.88775
2.88769
2.88763
2.88757
2.88751
2.88745
2.8874
2.88735
2.8873
2.88726
2.88722
2.88718
2.88715
2.88712
2.8871
2.88708
2.88706
2.88705
2.88704
2.88703
2.88703
2.88704
2.88705
2.88706
2.88708
2.8871
2.88712
2.88715
2.88718
2.88722
2.88726
2.8873
2.88735
2.8874
2.88745
2.88751
2.88757
2.88763
2.88769
2.88775
2.88781
2.88786
2.88792
2.88797
2.88801
2.88804
2.88807
2.88808
2.88808
2.88805
2.88801
2.88794
2.88784
2.88771
2.88755
2.88736
2.88713
2.88685
2.88653
2.88622
2.88573
2.88599
2.88626
2.8865
2.8867
2.88688
2.88703
2.88715
2.88725
2.88732
2.88738
2.88742
2.88744
2.88745
2.88745
2.88743
2.88741
2.88739
2.88736
2.88732
2.88728
2.88724
2.8872
2.88716
2.88712
2.88709
2.88705
2.88701
2.88698
2.88695
2.88692
2.88689
2.88686
2.88684
2.88682
2.88681
2.8868
2.88679
2.88678
2.88678
2.88678
2.88678
2.88679
2.8868
2.88681
2.88682
2.88684
2.88686
2.88689
2.88692
2.88695
2.88698
2.88701
2.88705
2.88709
2.88712
2.88716
2.8872
2.88724
2.88728
2.88732
2.88736
2.88739
2.88741
2.88743
2.88745
2.88745
2.88744
2.88742
2.88738
2.88732
2.88725
2.88715
2.88703
2.88688
2.8867
2.8865
2.88626
2.88599
2.88573
2.8853
2.88551
2.88575
2.88595
2.88613
2.88629
2.88642
2.88654
2.88663
2.88671
2.88677
2.88682
2.88685
2.88688
2.88689
2.88689
2.88689
2.88688
2.88687
2.88685
2.88683
2.88681
2.88679
2.88676
2.88674
2.88671
2.88669
2.88666
2.88664
2.88662
2.8866
2.88658
2.88656
2.88655
2.88654
2.88653
2.88652
2.88651
2.88651
2.8865
2.8865
2.88651
2.88651
2.88652
2.88653
2.88654
2.88655
2.88656
2.88658
2.8866
2.88662
2.88664
2.88666
2.88669
2.88671
2.88674
2.88676
2.88679
2.88681
2.88683
2.88685
2.88687
2.88688
2.88689
2.88689
2.88689
2.88688
2.88685
2.88682
2.88677
2.88671
2.88663
2.88654
2.88642
2.88629
2.88613
2.88595
2.88575
2.88551
2.8853
2.8849
2.88509
2.88529
2.88546
2.88562
2.88576
2.88588
2.88599
2.88608
2.88616
2.88622
2.88627
2.88631
2.88635
2.88637
2.88638
2.88639
2.8864
2.8864
2.8864
2.88639
2.88638
2.88637
2.88636
2.88635
2.88633
2.88632
2.88631
2.88629
2.88628
2.88627
2.88626
2.88625
2.88624
2.88623
2.88623
2.88622
2.88622
2.88621
2.88621
2.88621
2.88621
2.88622
2.88622
2.88623
2.88623
2.88624
2.88625
2.88626
2.88627
2.88628
2.88629
2.88631
2.88632
2.88633
2.88635
2.88636
2.88637
2.88638
2.88639
2.8864
2.8864
2.8864
2.88639
2.88638
2.88637
2.88635
2.88631
2.88627
2.88622
2.88616
2.88608
2.88599
2.88588
2.88576
2.88562
2.88546
2.88529
2.88509
2.8849
2.88454
2.8847
2.88487
2.88502
2.88516
2.88528
2.8854
2.88549
2.88558
2.88565
2.88572
2.88577
2.88582
2.88585
2.88588
2.88591
2.88593
2.88594
2.88595
2.88596
2.88596
2.88596
2.88596
2.88596
2.88596
2.88596
2.88595
2.88595
2.88594
2.88594
2.88594
2.88593
2.88593
2.88592
2.88592
2.88592
2.88591
2.88591
2.88591
2.88591
2.88591
2.88591
2.88591
2.88591
2.88592
2.88592
2.88592
2.88593
2.88593
2.88594
2.88594
2.88594
2.88595
2.88595
2.88596
2.88596
2.88596
2.88596
2.88596
2.88596
2.88596
2.88595
2.88594
2.88593
2.88591
2.88588
2.88585
2.88582
2.88577
2.88572
2.88565
2.88558
2.88549
2.8854
2.88528
2.88516
2.88502
2.88487
2.8847
2.88454
2.8842
2.88434
2.88449
2.88462
2.88474
2.88485
2.88495
2.88504
2.88512
2.88519
2.88525
2.88531
2.88535
2.88539
2.88543
2.88546
2.88548
2.8855
2.88552
2.88553
2.88555
2.88556
2.88557
2.88557
2.88558
2.88558
2.88559
2.88559
2.88559
2.88559
2.88559
2.8856
2.8856
2.8856
2.8856
2.8856
2.8856
2.8856
2.8856
2.8856
2.8856
2.8856
2.8856
2.8856
2.8856
2.8856
2.8856
2.8856
2.8856
2.88559
2.88559
2.88559
2.88559
2.88559
2.88558
2.88558
2.88557
2.88557
2.88556
2.88555
2.88553
2.88552
2.8855
2.88548
2.88546
2.88543
2.88539
2.88535
2.88531
2.88525
2.88519
2.88512
2.88504
2.88495
2.88485
2.88474
2.88462
2.88449
2.88434
2.8842
2.88388
2.884
2.88413
2.88425
2.88436
2.88445
2.88454
2.88462
2.8847
2.88476
2.88482
2.88487
2.88492
2.88496
2.885
2.88503
2.88506
2.88509
2.88511
2.88513
2.88515
2.88516
2.88518
2.88519
2.8852
2.88521
2.88522
2.88523
2.88524
2.88525
2.88525
2.88526
2.88526
2.88527
2.88527
2.88527
2.88527
2.88528
2.88528
2.88528
2.88528
2.88528
2.88528
2.88527
2.88527
2.88527
2.88527
2.88526
2.88526
2.88525
2.88525
2.88524
2.88523
2.88522
2.88521
2.8852
2.88519
2.88518
2.88516
2.88515
2.88513
2.88511
2.88509
2.88506
2.88503
2.885
2.88496
2.88492
2.88487
2.88482
2.88476
2.8847
2.88462
2.88454
2.88445
2.88436
2.88425
2.88413
2.884
2.88388
2.88359
2.88369
2.8838
2.8839
2.884
2.88408
2.88416
2.88424
2.8843
2.88436
2.88442
2.88447
2.88451
2.88456
2.88459
2.88463
2.88466
2.88469
2.88471
2.88474
2.88476
2.88478
2.8848
2.88482
2.88483
2.88485
2.88486
2.88488
2.88489
2.8849
2.88491
2.88492
2.88493
2.88493
2.88494
2.88494
2.88495
2.88495
2.88495
2.88495
2.88495
2.88495
2.88495
2.88495
2.88494
2.88494
2.88493
2.88493
2.88492
2.88491
2.8849
2.88489
2.88488
2.88486
2.88485
2.88483
2.88482
2.8848
2.88478
2.88476
2.88474
2.88471
2.88469
2.88466
2.88463
2.88459
2.88456
2.88451
2.88447
2.88442
2.88436
2.8843
2.88424
2.88416
2.88408
2.884
2.8839
2.8838
2.88369
2.88359
2.8833
2.88339
2.88349
2.88358
2.88366
2.88373
2.88381
2.88387
2.88393
2.88399
2.88404
2.88409
2.88413
2.88417
2.88421
2.88424
2.88428
2.88431
2.88433
2.88436
2.88439
2.88441
2.88443
2.88445
2.88447
2.88449
2.88451
2.88453
2.88454
2.88456
2.88457
2.88458
2.88459
2.8846
2.88461
2.88461
2.88462
2.88462
2.88463
2.88463
2.88463
2.88463
2.88462
2.88462
2.88461
2.88461
2.8846
2.88459
2.88458
2.88457
2.88456
2.88454
2.88453
2.88451
2.88449
2.88447
2.88445
2.88443
2.88441
2.88439
2.88436
2.88433
2.88431
2.88428
2.88424
2.88421
2.88417
2.88413
2.88409
2.88404
2.88399
2.88393
2.88387
2.88381
2.88373
2.88366
2.88358
2.88349
2.88339
2.8833
2.88302
2.8831
2.88319
2.88326
2.88334
2.8834
2.88347
2.88353
2.88358
2.88363
2.88368
2.88373
2.88377
2.88381
2.88384
2.88388
2.88391
2.88394
2.88397
2.884
2.88403
2.88405
2.88408
2.8841
2.88412
2.88414
2.88416
2.88418
2.8842
2.88421
2.88423
2.88424
2.88425
2.88427
2.88427
2.88428
2.88429
2.88429
2.8843
2.8843
2.8843
2.8843
2.88429
2.88429
2.88428
2.88427
2.88427
2.88425
2.88424
2.88423
2.88421
2.8842
2.88418
2.88416
2.88414
2.88412
2.8841
2.88408
2.88405
2.88403
2.884
2.88397
2.88394
2.88391
2.88388
2.88384
2.88381
2.88377
2.88373
2.88368
2.88363
2.88358
2.88353
2.88347
2.8834
2.88334
2.88326
2.88319
2.8831
2.88302
2.88276
2.88282
2.8829
2.88297
2.88303
2.88309
2.88315
2.8832
2.88325
2.8833
2.88334
2.88338
2.88342
2.88346
2.88349
2.88353
2.88356
2.88359
2.88362
2.88365
2.88368
2.8837
2.88373
2.88375
2.88378
2.8838
2.88382
2.88384
2.88386
2.88388
2.88389
2.88391
2.88392
2.88393
2.88394
2.88395
2.88396
2.88397
2.88397
2.88397
2.88397
2.88397
2.88397
2.88396
2.88395
2.88394
2.88393
2.88392
2.88391
2.88389
2.88388
2.88386
2.88384
2.88382
2.8838
2.88378
2.88375
2.88373
2.8837
2.88368
2.88365
2.88362
2.88359
2.88356
2.88353
2.88349
2.88346
2.88342
2.88338
2.88334
2.8833
2.88325
2.8832
2.88315
2.88309
2.88303
2.88297
2.8829
2.88282
2.88276
2.8825
2.88256
2.88262
2.88268
2.88274
2.88279
2.88284
2.88289
2.88293
2.88298
2.88302
2.88305
2.88309
2.88313
2.88316
2.88319
2.88322
2.88325
2.88328
2.88331
2.88334
2.88336
2.88339
2.88342
2.88344
2.88346
2.88348
2.88351
2.88353
2.88354
2.88356
2.88358
2.88359
2.8836
2.88362
2.88362
2.88363
2.88364
2.88364
2.88364
2.88364
2.88364
2.88364
2.88363
2.88362
2.88362
2.8836
2.88359
2.88358
2.88356
2.88354
2.88353
2.88351
2.88348
2.88346
2.88344
2.88342
2.88339
2.88336
2.88334
2.88331
2.88328
2.88325
2.88322
2.88319
2.88316
2.88313
2.88309
2.88305
2.88302
2.88298
2.88293
2.88289
2.88284
2.88279
2.88274
2.88268
2.88262
2.88256
2.8825
2.88224
2.88229
2.88235
2.8824
2.88245
2.8825
2.88254
2.88259
2.88263
2.88267
2.8827
2.88274
2.88277
2.8828
2.88284
2.88287
2.8829
2.88293
2.88295
2.88298
2.88301
2.88303
2.88306
2.88309
2.88311
2.88313
2.88316
2.88318
2.8832
2.88322
2.88323
2.88325
2.88327
2.88328
2.88329
2.8833
2.88331
2.88331
2.88332
2.88332
2.88332
2.88332
2.88331
2.88331
2.8833
2.88329
2.88328
2.88327
2.88325
2.88323
2.88322
2.8832
2.88318
2.88316
2.88313
2.88311
2.88309
2.88306
2.88303
2.88301
2.88298
2.88295
2.88293
2.8829
2.88287
2.88284
2.8828
2.88277
2.88274
2.8827
2.88267
2.88263
2.88259
2.88254
2.8825
2.88245
2.8824
2.88235
2.88229
2.88224
2.88199
2.88204
2.88209
2.88213
2.88218
2.88222
2.88226
2.8823
2.88233
2.88237
2.8824
2.88243
2.88246
2.88249
2.88252
2.88255
2.88258
2.88261
2.88264
2.88266
2.88269
2.88271
2.88274
2.88276
2.88279
2.88281
2.88283
2.88286
2.88288
2.88289
2.88291
2.88293
2.88294
2.88296
2.88297
2.88298
2.88299
2.88299
2.883
2.883
2.883
2.883
2.88299
2.88299
2.88298
2.88297
2.88296
2.88294
2.88293
2.88291
2.88289
2.88288
2.88286
2.88283
2.88281
2.88279
2.88276
2.88274
2.88271
2.88269
2.88266
2.88264
2.88261
2.88258
2.88255
2.88252
2.88249
2.88246
2.88243
2.8824
2.88237
2.88233
2.8823
2.88226
2.88222
2.88218
2.88213
2.88209
2.88204
2.88199
2.88174
2.88178
2.88183
2.88187
2.88191
2.88194
2.88198
2.88201
2.88204
2.88208
2.88211
2.88214
2.88216
2.88219
2.88222
2.88225
2.88227
2.8823
2.88233
2.88235
2.88238
2.8824
2.88243
2.88245
2.88247
2.8825
2.88252
2.88254
2.88256
2.88258
2.8826
2.88261
2.88263
2.88264
2.88265
2.88266
2.88267
2.88267
2.88268
2.88268
2.88268
2.88268
2.88267
2.88267
2.88266
2.88265
2.88264
2.88263
2.88261
2.8826
2.88258
2.88256
2.88254
2.88252
2.8825
2.88247
2.88245
2.88243
2.8824
2.88238
2.88235
2.88233
2.8823
2.88227
2.88225
2.88222
2.88219
2.88216
2.88214
2.88211
2.88208
2.88204
2.88201
2.88198
2.88194
2.88191
2.88187
2.88183
2.88178
2.88174
2.8815
2.88153
2.88157
2.88161
2.88164
2.88167
2.88171
2.88174
2.88176
2.88179
2.88182
2.88185
2.88187
2.8819
2.88192
2.88195
2.88197
2.882
2.88202
2.88205
2.88207
2.8821
2.88212
2.88214
2.88216
2.88219
2.88221
2.88223
2.88225
2.88227
2.88228
2.8823
2.88231
2.88233
2.88234
2.88235
2.88235
2.88236
2.88236
2.88237
2.88237
2.88236
2.88236
2.88235
2.88235
2.88234
2.88233
2.88231
2.8823
2.88228
2.88227
2.88225
2.88223
2.88221
2.88219
2.88216
2.88214
2.88212
2.8821
2.88207
2.88205
2.88202
2.882
2.88197
2.88195
2.88192
2.8819
2.88187
2.88185
2.88182
2.88179
2.88176
2.88174
2.88171
2.88167
2.88164
2.88161
2.88157
2.88153
2.8815
2.88126
2.88129
2.88132
2.88135
2.88138
2.88141
2.88144
2.88146
2.88149
2.88152
2.88154
2.88157
2.88159
2.88161
2.88164
2.88166
2.88168
2.88171
2.88173
2.88175
2.88177
2.8818
2.88182
2.88184
2.88186
2.88188
2.8819
2.88192
2.88194
2.88196
2.88198
2.88199
2.88201
2.88202
2.88203
2.88204
2.88204
2.88205
2.88205
2.88206
2.88206
2.88205
2.88205
2.88204
2.88204
2.88203
2.88202
2.88201
2.88199
2.88198
2.88196
2.88194
2.88192
2.8819
2.88188
2.88186
2.88184
2.88182
2.8818
2.88177
2.88175
2.88173
2.88171
2.88168
2.88166
2.88164
2.88161
2.88159
2.88157
2.88154
2.88152
2.88149
2.88146
2.88144
2.88141
2.88138
2.88135
2.88132
2.88129
2.88126
2.88102
2.88104
2.88107
2.8811
2.88112
2.88115
2.88117
2.8812
2.88122
2.88125
2.88127
2.88129
2.88131
2.88133
2.88135
2.88138
2.8814
2.88142
2.88144
2.88146
2.88148
2.8815
2.88152
2.88154
2.88157
2.88159
2.8816
2.88162
2.88164
2.88166
2.88167
2.88169
2.8817
2.88171
2.88172
2.88173
2.88174
2.88174
2.88175
2.88175
2.88175
2.88175
2.88174
2.88174
2.88173
2.88172
2.88171
2.8817
2.88169
2.88167
2.88166
2.88164
2.88162
2.8816
2.88159
2.88157
2.88154
2.88152
2.8815
2.88148
2.88146
2.88144
2.88142
2.8814
2.88138
2.88135
2.88133
2.88131
2.88129
2.88127
2.88125
2.88122
2.8812
2.88117
2.88115
2.88112
2.8811
2.88107
2.88104
2.88102
2.88078
2.8808
2.88082
2.88085
2.88087
2.88089
2.88092
2.88094
2.88096
2.88098
2.881
2.88102
2.88104
2.88106
2.88108
2.8811
2.88112
2.88114
2.88116
2.88118
2.8812
2.88122
2.88123
2.88125
2.88127
2.88129
2.88131
2.88133
2.88134
2.88136
2.88138
2.88139
2.8814
2.88141
2.88142
2.88143
2.88144
2.88144
2.88145
2.88145
2.88145
2.88145
2.88144
2.88144
2.88143
2.88142
2.88141
2.8814
2.88139
2.88138
2.88136
2.88134
2.88133
2.88131
2.88129
2.88127
2.88125
2.88123
2.88122
2.8812
2.88118
2.88116
2.88114
2.88112
2.8811
2.88108
2.88106
2.88104
2.88102
2.881
2.88098
2.88096
2.88094
2.88092
2.88089
2.88087
2.88085
2.88082
2.8808
2.88078
2.88054
2.88056
2.88058
2.8806
2.88062
2.88064
2.88066
2.88068
2.8807
2.88071
2.88073
2.88075
2.88077
2.88079
2.8808
2.88082
2.88084
2.88086
2.88088
2.8809
2.88091
2.88093
2.88095
2.88097
2.88099
2.881
2.88102
2.88104
2.88105
2.88107
2.88108
2.8811
2.88111
2.88112
2.88113
2.88113
2.88114
2.88115
2.88115
2.88115
2.88115
2.88115
2.88115
2.88114
2.88113
2.88113
2.88112
2.88111
2.8811
2.88108
2.88107
2.88105
2.88104
2.88102
2.881
2.88099
2.88097
2.88095
2.88093
2.88091
2.8809
2.88088
2.88086
2.88084
2.88082
2.8808
2.88079
2.88077
2.88075
2.88073
2.88071
2.8807
2.88068
2.88066
2.88064
2.88062
2.8806
2.88058
2.88056
2.88054
2.8803
2.88032
2.88034
2.88035
2.88037
2.88039
2.88041
2.88042
2.88044
2.88045
2.88047
2.88049
2.8805
2.88052
2.88054
2.88055
2.88057
2.88059
2.8806
2.88062
2.88064
2.88065
2.88067
2.88069
2.8807
2.88072
2.88074
2.88075
2.88077
2.88078
2.88079
2.8808
2.88082
2.88083
2.88083
2.88084
2.88085
2.88085
2.88086
2.88086
2.88086
2.88086
2.88085
2.88085
2.88084
2.88083
2.88083
2.88082
2.8808
2.88079
2.88078
2.88077
2.88075
2.88074
2.88072
2.8807
2.88069
2.88067
2.88065
2.88064
2.88062
2.8806
2.88059
2.88057
2.88055
2.88054
2.88052
2.8805
2.88049
2.88047
2.88045
2.88044
2.88042
2.88041
2.88039
2.88037
2.88035
2.88034
2.88032
2.8803
2.88006
2.88008
2.88009
2.88011
2.88012
2.88014
2.88015
2.88017
2.88018
2.8802
2.88021
2.88023
2.88024
2.88026
2.88027
2.88029
2.8803
2.88032
2.88033
2.88035
2.88036
2.88038
2.88039
2.88041
2.88042
2.88044
2.88045
2.88047
2.88048
2.88049
2.88051
2.88052
2.88053
2.88054
2.88055
2.88055
2.88056
2.88056
2.88057
2.88057
2.88057
2.88057
2.88056
2.88056
2.88055
2.88055
2.88054
2.88053
2.88052
2.88051
2.88049
2.88048
2.88047
2.88045
2.88044
2.88042
2.88041
2.88039
2.88038
2.88036
2.88035
2.88033
2.88032
2.8803
2.88029
2.88027
2.88026
2.88024
2.88023
2.88021
2.8802
2.88018
2.88017
2.88015
2.88014
2.88012
2.88011
2.88009
2.88008
2.88006
2.87982
2.87983
2.87985
2.87986
2.87988
2.87989
2.8799
2.87992
2.87993
2.87994
2.87995
2.87997
2.87998
2.87999
2.88001
2.88002
2.88003
2.88005
2.88006
2.88008
2.88009
2.88011
2.88012
2.88013
2.88015
2.88016
2.88018
2.88019
2.8802
2.88021
2.88023
2.88024
2.88025
2.88025
2.88026
2.88027
2.88027
2.88028
2.88028
2.88028
2.88028
2.88028
2.88028
2.88027
2.88027
2.88026
2.88025
2.88025
2.88024
2.88023
2.88021
2.8802
2.88019
2.88018
2.88016
2.88015
2.88013
2.88012
2.88011
2.88009
2.88008
2.88006
2.88005
2.88003
2.88002
2.88001
2.87999
2.87998
2.87997
2.87995
2.87994
2.87993
2.87992
2.8799
2.87989
2.87988
2.87986
2.87985
2.87983
2.87982
2.87958
2.87959
2.87961
2.87962
2.87963
2.87964
2.87965
2.87967
2.87968
2.87969
2.8797
2.87971
2.87972
2.87974
2.87975
2.87976
2.87977
2.87978
2.8798
2.87981
2.87982
2.87984
2.87985
2.87986
2.87988
2.87989
2.8799
2.87991
2.87993
2.87994
2.87995
2.87996
2.87997
2.87997
2.87998
2.87999
2.87999
2.87999
2.88
2.88
2.88
2.88
2.87999
2.87999
2.87999
2.87998
2.87997
2.87997
2.87996
2.87995
2.87994
2.87993
2.87991
2.8799
2.87989
2.87988
2.87986
2.87985
2.87984
2.87982
2.87981
2.8798
2.87978
2.87977
2.87976
2.87975
2.87974
2.87972
2.87971
2.8797
2.87969
2.87968
2.87967
2.87965
2.87964
2.87963
2.87962
2.87961
2.87959
2.87958
2.87934
2.87935
2.87936
2.87937
2.87939
2.8794
2.87941
2.87942
2.87943
2.87944
2.87945
2.87946
2.87947
2.87948
2.87949
2.8795
2.87951
2.87952
2.87953
2.87955
2.87956
2.87957
2.87958
2.87959
2.87961
2.87962
2.87963
2.87964
2.87965
2.87966
2.87967
2.87968
2.87969
2.8797
2.8797
2.87971
2.87971
2.87972
2.87972
2.87972
2.87972
2.87972
2.87972
2.87971
2.87971
2.8797
2.8797
2.87969
2.87968
2.87967
2.87966
2.87965
2.87964
2.87963
2.87962
2.87961
2.87959
2.87958
2.87957
2.87956
2.87955
2.87953
2.87952
2.87951
2.8795
2.87949
2.87948
2.87947
2.87946
2.87945
2.87944
2.87943
2.87942
2.87941
2.8794
2.87939
2.87937
2.87936
2.87935
2.87934
2.87911
2.87911
2.87912
2.87913
2.87914
2.87915
2.87916
2.87917
2.87918
2.87919
2.87919
2.8792
2.87921
2.87922
2.87923
2.87924
2.87925
2.87926
2.87927
2.87928
2.8793
2.87931
2.87932
2.87933
2.87934
2.87935
2.87936
2.87937
2.87938
2.87939
2.8794
2.87941
2.87941
2.87942
2.87943
2.87943
2.87944
2.87944
2.87944
2.87944
2.87944
2.87944
2.87944
2.87944
2.87943
2.87943
2.87942
2.87941
2.87941
2.8794
2.87939
2.87938
2.87937
2.87936
2.87935
2.87934
2.87933
2.87932
2.87931
2.8793
2.87928
2.87927
2.87926
2.87925
2.87924
2.87923
2.87922
2.87921
2.8792
2.87919
2.87919
2.87918
2.87917
2.87916
2.87915
2.87914
2.87913
2.87912
2.87911
2.87911
2.87887
2.87887
2.87888
2.87889
2.8789
2.8789
2.87891
2.87892
2.87893
2.87894
2.87894
2.87895
2.87896
2.87897
2.87898
2.87899
2.879
2.87901
2.87901
2.87902
2.87903
2.87904
2.87905
2.87906
2.87907
2.87908
2.87909
2.8791
2.87911
2.87912
2.87913
2.87914
2.87914
2.87915
2.87915
2.87916
2.87916
2.87917
2.87917
2.87917
2.87917
2.87917
2.87917
2.87916
2.87916
2.87915
2.87915
2.87914
2.87914
2.87913
2.87912
2.87911
2.8791
2.87909
2.87908
2.87907
2.87906
2.87905
2.87904
2.87903
2.87902
2.87901
2.87901
2.879
2.87899
2.87898
2.87897
2.87896
2.87895
2.87894
2.87894
2.87893
2.87892
2.87891
2.8789
2.8789
2.87889
2.87888
2.87887
2.87887
2.87863
2.87863
2.87864
2.87864
2.87865
2.87866
2.87867
2.87867
2.87868
2.87869
2.87869
2.8787
2.87871
2.87872
2.87872
2.87873
2.87874
2.87875
2.87876
2.87877
2.87877
2.87878
2.87879
2.8788
2.87881
2.87882
2.87883
2.87884
2.87885
2.87885
2.87886
2.87887
2.87887
2.87888
2.87888
2.87889
2.87889
2.87889
2.8789
2.8789
2.8789
2.8789
2.87889
2.87889
2.87889
2.87888
2.87888
2.87887
2.87887
2.87886
2.87885
2.87885
2.87884
2.87883
2.87882
2.87881
2.8788
2.87879
2.87878
2.87877
2.87877
2.87876
2.87875
2.87874
2.87873
2.87872
2.87872
2.87871
2.8787
2.87869
2.87869
2.87868
2.87867
2.87867
2.87866
2.87865
2.87864
2.87864
2.87863
2.87863
2.87838
2.87839
2.8784
2.8784
2.87841
2.87841
2.87842
2.87843
2.87843
2.87844
2.87844
2.87845
2.87846
2.87846
2.87847
2.87848
2.87849
2.87849
2.8785
2.87851
2.87852
2.87853
2.87853
2.87854
2.87855
2.87856
2.87857
2.87857
2.87858
2.87859
2.87859
2.8786
2.87861
2.87861
2.87862
2.87862
2.87862
2.87862
2.87863
2.87863
2.87863
2.87863
2.87862
2.87862
2.87862
2.87862
2.87861
2.87861
2.8786
2.87859
2.87859
2.87858
2.87857
2.87857
2.87856
2.87855
2.87854
2.87853
2.87853
2.87852
2.87851
2.8785
2.87849
2.87849
2.87848
2.87847
2.87846
2.87846
2.87845
2.87844
2.87844
2.87843
2.87843
2.87842
2.87841
2.87841
2.8784
2.8784
2.87839
2.87838
2.87814
2.87815
2.87815
2.87816
2.87816
2.87817
2.87817
2.87818
2.87818
2.87819
2.8782
2.8782
2.87821
2.87821
2.87822
2.87823
2.87823
2.87824
2.87825
2.87825
2.87826
2.87827
2.87828
2.87828
2.87829
2.8783
2.8783
2.87831
2.87832
2.87832
2.87833
2.87834
2.87834
2.87835
2.87835
2.87835
2.87836
2.87836
2.87836
2.87836
2.87836
2.87836
2.87836
2.87836
2.87835
2.87835
2.87835
2.87834
2.87834
2.87833
2.87832
2.87832
2.87831
2.8783
2.8783
2.87829
2.87828
2.87828
2.87827
2.87826
2.87825
2.87825
2.87824
2.87823
2.87823
2.87822
2.87821
2.87821
2.8782
2.8782
2.87819
2.87818
2.87818
2.87817
2.87817
2.87816
2.87816
2.87815
2.87815
2.87814
2.8779
2.87791
2.87791
2.87791
2.87792
2.87792
2.87793
2.87793
2.87794
2.87794
2.87795
2.87795
2.87796
2.87796
2.87797
2.87797
2.87798
2.87799
2.87799
2.878
2.87801
2.87801
2.87802
2.87803
2.87803
2.87804
2.87804
2.87805
2.87806
2.87806
2.87807
2.87807
2.87808
2.87808
2.87809
2.87809
2.87809
2.87809
2.87809
2.8781
2.8781
2.87809
2.87809
2.87809
2.87809
2.87809
2.87808
2.87808
2.87807
2.87807
2.87806
2.87806
2.87805
2.87804
2.87804
2.87803
2.87803
2.87802
2.87801
2.87801
2.878
2.87799
2.87799
2.87798
2.87797
2.87797
2.87796
2.87796
2.87795
2.87795
2.87794
2.87794
2.87793
2.87793
2.87792
2.87792
2.87791
2.87791
2.87791
2.8779
2.87766
2.87766
2.87767
2.87767
2.87767
2.87768
2.87768
2.87769
2.87769
2.87769
2.8777
2.8777
2.87771
2.87771
2.87772
2.87772
2.87773
2.87773
2.87774
2.87774
2.87775
2.87776
2.87776
2.87777
2.87777
2.87778
2.87779
2.87779
2.8778
2.8778
2.87781
2.87781
2.87782
2.87782
2.87782
2.87783
2.87783
2.87783
2.87783
2.87783
2.87783
2.87783
2.87783
2.87783
2.87783
2.87782
2.87782
2.87782
2.87781
2.87781
2.8778
2.8778
2.87779
2.87779
2.87778
2.87777
2.87777
2.87776
2.87776
2.87775
2.87774
2.87774
2.87773
2.87773
2.87772
2.87772
2.87771
2.87771
2.8777
2.8777
2.87769
2.87769
2.87769
2.87768
2.87768
2.87767
2.87767
2.87767
2.87766
2.87766
2.87742
2.87742
2.87742
2.87743
2.87743
2.87743
2.87744
2.87744
2.87744
2.87745
2.87745
2.87745
2.87746
2.87746
2.87747
2.87747
2.87748
2.87748
2.87749
2.87749
2.8775
2.8775
2.87751
2.87751
2.87752
2.87752
2.87753
2.87753
2.87754
2.87754
2.87755
2.87755
2.87756
2.87756
2.87756
2.87756
2.87757
2.87757
2.87757
2.87757
2.87757
2.87757
2.87757
2.87757
2.87756
2.87756
2.87756
2.87756
2.87755
2.87755
2.87754
2.87754
2.87753
2.87753
2.87752
2.87752
2.87751
2.87751
2.8775
2.8775
2.87749
2.87749
2.87748
2.87748
2.87747
2.87747
2.87746
2.87746
2.87745
2.87745
2.87745
2.87744
2.87744
2.87744
2.87743
2.87743
2.87743
2.87742
2.87742
2.87742
2.87717
2.87718
2.87718
2.87718
2.87718
2.87719
2.87719
2.87719
2.8772
2.8772
2.8772
2.87721
2.87721
2.87721
2.87722
2.87722
2.87723
2.87723
2.87724
2.87724
2.87724
2.87725
2.87725
2.87726
2.87726
2.87727
2.87727
2.87728
2.87728
2.87729
2.87729
2.87729
2.8773
2.8773
2.8773
2.87731
2.87731
2.87731
2.87731
2.87731
2.87731
2.87731
2.87731
2.87731
2.87731
2.8773
2.8773
2.8773
2.87729
2.87729
2.87729
2.87728
2.87728
2.87727
2.87727
2.87726
2.87726
2.87725
2.87725
2.87724
2.87724
2.87724
2.87723
2.87723
2.87722
2.87722
2.87721
2.87721
2.87721
2.8772
2.8772
2.8772
2.87719
2.87719
2.87719
2.87718
2.87718
2.87718
2.87718
2.87717
2.87693
2.87693
2.87694
2.87694
2.87694
2.87694
2.87694
2.87695
2.87695
2.87695
2.87696
2.87696
2.87696
2.87697
2.87697
2.87697
2.87698
2.87698
2.87698
2.87699
2.87699
2.877
2.877
2.87701
2.87701
2.87701
2.87702
2.87702
2.87703
2.87703
2.87703
2.87704
2.87704
2.87704
2.87704
2.87705
2.87705
2.87705