/*--------------------------------*- C++ -*----------------------------------*\
  =========                 |
  \\      /  F ield         | OpenFOAM: The Open Source CFD Toolbox
   \\    /   O peration     | Website:  https://openfoam.org
    \\  /    A nd           | Version:  11
     \\/     M anipulation  |
\*---------------------------------------------------------------------------*/
FoamFile
{
    format      ascii;
    class       volScalarField;
    location    "5";
    object      C;
}
// * * * * * * * * * * * * * * * * * * * * * * * * * * * * * * * * * * * * * //

dimensions      [0 0 0 1 0 0 0];

internalField   nonuniform List<scalar> 
332800
(
3.48934e-65
3.42053e-65
3.30463e-65
3.15628e-65
2.98613e-65
2.80233e-65
2.61127e-65
2.41802e-65
2.22651e-65
2.03982e-65
1.86023e-65
1.68942e-65
1.52851e-65
1.3782e-65
1.23883e-65
1.11045e-65
9.92885e-66
8.85803e-66
7.8874e-66
7.01147e-66
6.2242e-66
5.5193e-66
4.89035e-66
4.33102e-66
3.83519e-66
3.39699e-66
3.01091e-66
2.67181e-66
2.37496e-66
2.11604e-66
1.89114e-66
1.69675e-66
1.52977e-66
1.38745e-66
1.26741e-66
1.16761e-66
1.08631e-66
1.02211e-66
9.73852e-67
9.40692e-67
9.22032e-67
9.17534e-67
9.27112e-67
9.50927e-67
9.89391e-67
1.04317e-66
1.11317e-66
1.20058e-66
1.30686e-66
1.43372e-66
1.58319e-66
1.75758e-66
1.9595e-66
2.19188e-66
2.45794e-66
2.7612e-66
3.10546e-66
3.49477e-66
3.93338e-66
4.42569e-66
4.97614e-66
5.58913e-66
6.26887e-66
7.01918e-66
7.84327e-66
8.74352e-66
9.72111e-66
1.07757e-65
1.19048e-65
1.31036e-65
1.43641e-65
1.56747e-65
1.70193e-65
1.83763e-65
1.97179e-65
2.10088e-65
2.2204e-65
2.32462e-65
2.40604e-65
2.4544e-65
1.07977e-64
1.06376e-64
1.0351e-64
9.96691e-65
9.51021e-65
9.00221e-65
8.46096e-65
7.90163e-65
7.33677e-65
6.77661e-65
6.22933e-65
5.70125e-65
5.1971e-65
4.72024e-65
4.27285e-65
3.85614e-65
3.47054e-65
3.11582e-65
2.79124e-65
2.4957e-65
2.22782e-65
1.98602e-65
1.76861e-65
1.57387e-65
1.40004e-65
1.24542e-65
1.10835e-65
9.87262e-66
8.80685e-66
7.87255e-66
7.05717e-66
6.34935e-66
5.73885e-66
5.2166e-66
4.77461e-66
4.40599e-66
4.10485e-66
3.86633e-66
3.68652e-66
3.56243e-66
3.49198e-66
3.47394e-66
3.50797e-66
3.59456e-66
3.73504e-66
3.93161e-66
4.18729e-66
4.50599e-66
4.89248e-66
5.35241e-66
5.89232e-66
6.51965e-66
7.24271e-66
8.07065e-66
9.01344e-66
1.00818e-65
1.1287e-65
1.26408e-65
1.41552e-65
1.58424e-65
1.77138e-65
1.97805e-65
2.2052e-65
2.4536e-65
2.72376e-65
3.01581e-65
3.32947e-65
3.66389e-65
4.01751e-65
4.38799e-65
4.77199e-65
5.16508e-65
5.56153e-65
5.95414e-65
6.33411e-65
6.69076e-65
7.01144e-65
7.28118e-65
7.48247e-65
7.59493e-65
1.8788e-64
1.85486e-64
1.81108e-64
1.7513e-64
1.67902e-64
1.59742e-64
1.50931e-64
1.41713e-64
1.32297e-64
1.2286e-64
1.13548e-64
1.04479e-64
9.57423e-65
8.74084e-65
7.95261e-65
7.21274e-65
6.523e-65
5.88396e-65
5.29522e-65
4.75563e-65
4.26345e-65
3.81651e-65
3.41234e-65
3.04829e-65
2.72163e-65
2.42959e-65
2.16947e-65
1.93863e-65
1.73458e-65
1.55498e-65
1.39765e-65
1.26059e-65
1.14199e-65
1.04022e-65
9.53854e-66
8.81633e-66
8.22489e-66
7.75529e-66
7.4003e-66
7.15439e-66
7.01363e-66
6.97571e-66
7.03989e-66
7.20695e-66
7.47925e-66
7.86064e-66
8.35652e-66
8.97381e-66
9.72096e-66
1.06079e-65
1.16462e-65
1.28486e-65
1.42296e-65
1.58047e-65
1.75907e-65
1.96054e-65
2.18673e-65
2.43952e-65
2.72078e-65
3.03236e-65
3.37593e-65
3.75299e-65
4.16475e-65
4.61199e-65
5.09497e-65
5.61328e-65
6.16565e-65
6.74983e-65
7.36237e-65
7.99843e-65
8.65157e-65
9.31355e-65
9.97417e-65
1.0621e-64
1.12394e-64
1.18121e-64
1.23194e-64
1.27391e-64
1.30464e-64
1.32145e-64
2.77699e-64
2.74512e-64
2.68619e-64
2.60489e-64
2.50565e-64
2.39256e-64
2.26937e-64
2.1394e-64
2.00559e-64
1.87045e-64
1.7361e-64
1.60431e-64
1.47649e-64
1.35374e-64
1.2369e-64
1.12653e-64
1.02302e-64
9.2655e-65
8.37169e-65
7.54796e-65
6.7926e-65
6.10311e-65
5.4765e-65
4.90938e-65
4.39814e-65
3.93906e-65
3.52841e-65
3.16252e-65
2.83785e-65
2.55103e-65
2.29891e-65
2.07857e-65
1.88732e-65
1.72276e-65
1.58273e-65
1.46535e-65
1.369e-65
1.29231e-65
1.23419e-65
1.19377e-65
1.17045e-65
1.16385e-65
1.17386e-65
1.20057e-65
1.24432e-65
1.30569e-65
1.38546e-65
1.48466e-65
1.60452e-65
1.74651e-65
1.9123e-65
2.10376e-65
2.32294e-65
2.57206e-65
2.8535e-65
3.1697e-65
3.5232e-65
3.91653e-65
4.35214e-65
4.83234e-65
5.35919e-65
5.93439e-65
6.55909e-65
7.23382e-65
7.95824e-65
8.73097e-65
9.5494e-65
1.04094e-64
1.13052e-64
1.22291e-64
1.3171e-64
1.41187e-64
1.50572e-64
1.59688e-64
1.6833e-64
1.76264e-64
1.83227e-64
1.88932e-64
1.93068e-64
1.95305e-64
3.80567e-64
3.76521e-64
3.68995e-64
3.58548e-64
3.45717e-64
3.31009e-64
3.1489e-64
2.97785e-64
2.80073e-64
2.62083e-64
2.441e-64
2.26363e-64
2.09068e-64
1.92373e-64
1.76397e-64
1.61232e-64
1.46937e-64
1.3355e-64
1.21088e-64
1.09549e-64
9.89199e-65
8.91748e-65
8.02802e-65
7.21964e-65
6.48796e-65
5.82836e-65
5.23612e-65
4.70652e-65
4.23496e-65
3.81701e-65
3.44847e-65
3.12543e-65
2.84427e-65
2.60171e-65
2.39482e-65
2.22098e-65
2.07797e-65
1.96389e-65
1.87719e-65
1.81667e-65
1.78147e-65
1.77106e-65
1.78523e-65
1.82411e-65
1.88814e-65
1.97808e-65
2.095e-65
2.24027e-65
2.41556e-65
2.62282e-65
2.86428e-65
3.14241e-65
3.45992e-65
3.8197e-65
4.2248e-65
4.67837e-65
5.18357e-65
5.74351e-65
6.36116e-65
7.03921e-65
7.77993e-65
8.58502e-65
9.45542e-65
1.03911e-64
1.13909e-64
1.24522e-64
1.35705e-64
1.47397e-64
1.59512e-64
1.7194e-64
1.84543e-64
1.97152e-64
2.09569e-64
2.21562e-64
2.32865e-64
2.4318e-64
2.5218e-64
2.59508e-64
2.64787e-64
2.67626e-64
4.99891e-64
4.94876e-64
4.85514e-64
4.72467e-64
4.56377e-64
4.37859e-64
4.17482e-64
3.95769e-64
3.73191e-64
3.50164e-64
3.27051e-64
3.04159e-64
2.81744e-64
2.60018e-64
2.39143e-64
2.19246e-64
2.00415e-64
1.82711e-64
1.66163e-64
1.50783e-64
1.3656e-64
1.23472e-64
1.11482e-64
1.00545e-64
9.06116e-65
8.1626e-65
7.35314e-65
6.62698e-65
5.97842e-65
5.40189e-65
4.8921e-65
4.44405e-65
4.05312e-65
3.71505e-65
3.42604e-65
3.1827e-65
2.98209e-65
2.8217e-65
2.6995e-65
2.61388e-65
2.56369e-65
2.5482e-65
2.56711e-65
2.62057e-65
2.70911e-65
2.8337e-65
2.99569e-65
3.19684e-65
3.43927e-65
3.72545e-65
4.05821e-65
4.44066e-65
4.87618e-65
5.36837e-65
5.92096e-65
6.53779e-65
7.22264e-65
7.97919e-65
8.81085e-65
9.72059e-65
1.07108e-64
1.1783e-64
1.29379e-64
1.41745e-64
1.54907e-64
1.68822e-64
1.83427e-64
1.98635e-64
2.14328e-64
2.3036e-64
2.4655e-64
2.62683e-64
2.78504e-64
2.93721e-64
3.08004e-64
3.20985e-64
3.32265e-64
3.41414e-64
3.47979e-64
3.51495e-64
6.39531e-64
6.33398e-64
6.21919e-64
6.0588e-64
5.86048e-64
5.63158e-64
5.37898e-64
5.10903e-64
4.82749e-64
4.53946e-64
4.24945e-64
3.9613e-64
3.67828e-64
3.40305e-64
3.13777e-64
2.88408e-64
2.64321e-64
2.41601e-64
2.20297e-64
2.00432e-64
1.82004e-64
1.64991e-64
1.49358e-64
1.35054e-64
1.22023e-64
1.102e-64
9.95197e-65
8.99115e-65
8.13068e-65
7.36379e-65
6.68399e-65
6.08511e-65
5.56138e-65
5.10751e-65
4.7187e-65
4.39069e-65
4.11974e-65
3.90268e-65
3.7369e-65
3.62033e-65
3.55147e-65
3.52937e-65
3.55363e-65
3.62436e-65
3.74224e-65
3.90842e-65
4.12457e-65
4.39286e-65
4.7159e-65
5.09673e-65
5.5388e-65
6.04591e-65
6.62216e-65
7.27189e-65
7.99956e-65
8.8097e-65
9.70674e-65
1.06949e-64
1.1778e-64
1.29592e-64
1.4241e-64
1.56247e-64
1.71103e-64
1.86961e-64
2.03786e-64
2.21516e-64
2.40066e-64
2.59319e-64
2.79125e-64
2.99294e-64
3.19598e-64
3.39768e-64
3.59487e-64
3.78397e-64
3.96094e-64
4.12132e-64
4.2603e-64
4.37271e-64
4.45317e-64
4.49616e-64
8.0396e-64
7.96518e-64
7.82563e-64
7.63031e-64
7.38835e-64
7.10854e-64
6.79912e-64
6.46775e-64
6.12138e-64
5.76624e-64
5.40781e-64
5.05084e-64
4.69935e-64
4.3567e-64
4.02558e-64
3.70812e-64
3.40593e-64
3.12013e-64
2.85145e-64
2.60024e-64
2.36659e-64
2.15032e-64
1.95106e-64
1.76828e-64
1.60133e-64
1.44949e-64
1.31197e-64
1.18796e-64
1.07664e-64
9.77201e-65
8.88863e-65
8.10876e-65
7.42539e-65
6.83204e-65
6.32281e-65
5.89243e-65
5.53629e-65
5.25043e-65
5.03159e-65
4.87719e-65
4.78533e-65
4.75478e-65
4.785e-65
4.8761e-65
5.02885e-65
5.24463e-65
5.52547e-65
5.87394e-65
6.2932e-65
6.78692e-65
7.35924e-65
8.0147e-65
8.75819e-65
9.59481e-65
1.05298e-64
1.15685e-64
1.2716e-64
1.3977e-64
1.53558e-64
1.68558e-64
1.84794e-64
2.02276e-64
2.20998e-64
2.40931e-64
2.62024e-64
2.84197e-64
3.07336e-64
3.31292e-64
3.55874e-64
3.80846e-64
4.05928e-64
4.30784e-64
4.55032e-64
4.78233e-64
4.999e-64
5.19497e-64
5.36444e-64
5.50127e-64
5.59904e-64
5.65119e-64
9.98426e-64
9.89436e-64
9.72563e-64
9.48915e-64
9.19584e-64
8.85615e-64
8.47999e-64
8.07651e-64
7.65408e-64
7.22023e-64
6.7816e-64
6.34396e-64
5.91223e-64
5.49054e-64
5.08224e-64
4.69e-64
4.31584e-64
3.96124e-64
3.62715e-64
3.31413e-64
3.02236e-64
2.7517e-64
2.50178e-64
2.27203e-64
2.06173e-64
1.87005e-64
1.69609e-64
1.53889e-64
1.39749e-64
1.27094e-64
1.1583e-64
1.05867e-64
9.71219e-65
8.95158e-65
8.29772e-65
7.74422e-65
7.28544e-65
6.91656e-65
6.63354e-65
6.43322e-65
6.31321e-65
6.272e-65
6.30886e-65
6.42388e-65
6.61793e-65
6.89264e-65
7.2504e-65
7.69428e-65
8.22803e-65
8.85601e-65
9.58311e-65
1.04147e-64
1.13566e-64
1.24147e-64
1.35951e-64
1.4904e-64
1.63472e-64
1.79301e-64
1.96573e-64
2.15325e-64
2.3558e-64
2.57345e-64
2.80603e-64
3.05316e-64
3.31414e-64
3.58792e-64
3.87306e-64
4.1677e-64
4.46946e-64
4.77545e-64
5.08222e-64
5.38571e-64
5.68127e-64
5.96362e-64
6.2269e-64
6.46468e-64
6.67003e-64
6.8356e-64
6.95376e-64
7.01672e-64
1.22913e-63
1.21831e-63
1.19797e-63
1.16945e-63
1.13404e-63
1.09299e-63
1.04748e-63
9.98614e-64
9.47393e-64
8.94719e-64
8.41395e-64
7.88119e-64
7.35487e-64
6.84001e-64
6.34074e-64
5.86034e-64
5.40134e-64
4.96559e-64
4.55436e-64
4.16839e-64
3.80798e-64
3.47305e-64
3.16323e-64
2.87791e-64
2.61626e-64
2.37735e-64
2.16014e-64
1.96351e-64
1.78634e-64
1.62751e-64
1.4859e-64
1.36046e-64
1.25017e-64
1.15411e-64
1.07141e-64
1.0013e-64
9.43106e-65
8.96237e-65
8.60205e-65
8.34624e-65
8.19202e-65
8.1375e-65
8.18175e-65
8.32481e-65
8.56767e-65
8.91224e-65
9.3613e-65
9.91849e-65
1.05882e-64
1.13756e-64
1.22864e-64
1.3327e-64
1.4504e-64
1.58245e-64
1.72955e-64
1.89241e-64
2.0717e-64
2.26801e-64
2.48187e-64
2.71367e-64
2.96362e-64
3.23174e-64
3.5178e-64
3.82124e-64
4.14116e-64
4.47624e-64
4.82469e-64
5.18419e-64
5.55184e-64
5.92413e-64
6.29685e-64
6.66512e-64
7.02331e-64
7.36509e-64
7.68343e-64
7.97063e-64
8.21841e-64
8.41802e-64
8.56034e-64
8.63611e-64
1.50343e-63
1.49043e-63
1.46598e-63
1.43166e-63
1.38903e-63
1.33957e-63
1.2847e-63
1.22573e-63
1.16386e-63
1.10018e-63
1.03565e-63
9.71105e-64
9.07275e-64
8.44763e-64
7.8407e-64
7.25598e-64
6.69659e-64
6.16484e-64
5.66232e-64
5.19e-64
4.74832e-64
4.33728e-64
3.9565e-64
3.60529e-64
3.28275e-64
2.98779e-64
2.71922e-64
2.47574e-64
2.25605e-64
2.0588e-64
1.8827e-64
1.72648e-64
1.58896e-64
1.46901e-64
1.36562e-64
1.27786e-64
1.20492e-64
1.14608e-64
1.10077e-64
1.06851e-64
1.04894e-64
1.04184e-64
1.04709e-64
1.06469e-64
1.09474e-64
1.13747e-64
1.1932e-64
1.26237e-64
1.34547e-64
1.44313e-64
1.55601e-64
1.68486e-64
1.83045e-64
1.9936e-64
2.17513e-64
2.37586e-64
2.59654e-64
2.83786e-64
3.1004e-64
3.38456e-64
3.69056e-64
4.01837e-64
4.36764e-64
4.73765e-64
5.12725e-64
5.5348e-64
5.95811e-64
6.39432e-64
6.83993e-64
7.29067e-64
7.74147e-64
8.18644e-64
8.61883e-64
9.03106e-64
9.4147e-64
9.76055e-64
1.00587e-63
1.02988e-63
1.04698e-63
1.05608e-63
1.83011e-63
1.8145e-63
1.78515e-63
1.74393e-63
1.69269e-63
1.63322e-63
1.56721e-63
1.49622e-63
1.4217e-63
1.34493e-63
1.26708e-63
1.18916e-63
1.11203e-63
1.03643e-63
9.62963e-64
8.92113e-64
8.24263e-64
7.59697e-64
6.98614e-64
6.41138e-64
5.87328e-64
5.37192e-64
4.9069e-64
4.47748e-64
4.08262e-64
3.72109e-64
3.39148e-64
3.0923e-64
2.82201e-64
2.57905e-64
2.36187e-64
2.16899e-64
1.999e-64
1.85057e-64
1.72248e-64
1.61363e-64
1.52305e-64
1.44989e-64
1.39346e-64
1.35317e-64
1.32861e-64
1.31949e-64
1.32566e-64
1.34711e-64
1.38397e-64
1.4365e-64
1.50507e-64
1.59019e-64
1.69245e-64
1.81256e-64
1.95131e-64
2.10957e-64
2.28826e-64
2.48831e-64
2.71069e-64
2.95632e-64
3.22609e-64
3.52077e-64
3.841e-64
4.18723e-64
4.55968e-64
4.95823e-64
5.38241e-64
5.83133e-64
6.30354e-64
6.79703e-64
7.3091e-64
7.83632e-64
8.37442e-64
8.91827e-64
9.46177e-64
9.99785e-64
1.05184e-63
1.10144e-63
1.14757e-63
1.18913e-63
1.22494e-63
1.25376e-63
1.27428e-63
1.2852e-63
2.21961e-63
2.20089e-63
2.16569e-63
2.11623e-63
2.05474e-63
1.98334e-63
1.90404e-63
1.81873e-63
1.72913e-63
1.63679e-63
1.54308e-63
1.44924e-63
1.35629e-63
1.26511e-63
1.17644e-63
1.09087e-63
1.00886e-63
9.30755e-64
8.56797e-64
7.87143e-64
7.21873e-64
6.61e-64
6.04485e-64
5.52244e-64
5.0416e-64
4.60088e-64
4.19867e-64
3.83322e-64
3.50271e-64
3.20532e-64
2.93922e-64
2.70266e-64
2.49396e-64
2.31156e-64
2.154e-64
2.01998e-64
1.90833e-64
1.81806e-64
1.7483e-64
1.69839e-64
1.66781e-64
1.65622e-64
1.66343e-64
1.68942e-64
1.73434e-64
1.79848e-64
1.88228e-64
1.98632e-64
2.11132e-64
2.2581e-64
2.42758e-64
2.62078e-64
2.83877e-64
3.08264e-64
3.35352e-64
3.65248e-64
3.98054e-64
4.33857e-64
4.72731e-64
5.14725e-64
5.59858e-64
6.08114e-64
6.59431e-64
7.13695e-64
7.70731e-64
8.30291e-64
8.92048e-64
9.55589e-64
1.0204e-63
1.08586e-63
1.15124e-63
1.21569e-63
1.27824e-63
1.33781e-63
1.39319e-63
1.44306e-63
1.48602e-63
1.52058e-63
1.54518e-63
1.55826e-63
2.68442e-63
2.66199e-63
2.61979e-63
2.56051e-63
2.48677e-63
2.40112e-63
2.30598e-63
2.20358e-63
2.09599e-63
1.98507e-63
1.87247e-63
1.75964e-63
1.64783e-63
1.5381e-63
1.43133e-63
1.32823e-63
1.22935e-63
1.13512e-63
1.04583e-63
9.61681e-64
8.82768e-64
8.09115e-64
7.40681e-64
6.77372e-64
6.19052e-64
5.65554e-64
5.16689e-64
4.72252e-64
4.32029e-64
3.95806e-64
3.63366e-64
3.34504e-64
3.0902e-64
2.86729e-64
2.67458e-64
2.51051e-64
2.37371e-64
2.26298e-64
2.1773e-64
2.11586e-64
2.07805e-64
2.06345e-64
2.07183e-64
2.10317e-64
2.15762e-64
2.23553e-64
2.33741e-64
2.46394e-64
2.61596e-64
2.79442e-64
3.00043e-64
3.23516e-64
3.49986e-64
3.79584e-64
4.12437e-64
4.48673e-64
4.88408e-64
5.31744e-64
5.78764e-64
6.29522e-64
6.84038e-64
7.42286e-64
8.04188e-64
8.69603e-64
9.38317e-64
1.01003e-63
1.08435e-63
1.16077e-63
1.23868e-63
1.31733e-63
1.39585e-63
1.47322e-63
1.54829e-63
1.61975e-63
1.68616e-63
1.74595e-63
1.79743e-63
1.83884e-63
1.86831e-63
1.88397e-63
3.23944e-63
3.21258e-63
3.16203e-63
3.091e-63
3.00263e-63
2.89997e-63
2.7859e-63
2.66311e-63
2.53404e-63
2.40094e-63
2.26578e-63
2.1303e-63
1.99599e-63
1.86413e-63
1.73577e-63
1.61176e-63
1.49277e-63
1.37932e-63
1.27176e-63
1.17034e-63
1.07517e-63
9.86285e-64
9.03649e-64
8.27151e-64
7.56634e-64
6.91904e-64
6.32739e-64
5.78897e-64
5.30127e-64
4.86175e-64
4.46787e-64
4.11718e-64
3.80731e-64
3.53607e-64
3.30142e-64
3.1015e-64
2.93467e-64
2.79949e-64
2.69477e-64
2.61954e-64
2.57305e-64
2.5548e-64
2.56452e-64
2.60216e-64
2.66791e-64
2.76216e-64
2.88552e-64
3.03878e-64
3.22292e-64
3.43908e-64
3.68853e-64
3.97267e-64
4.29296e-64
4.65092e-64
5.04807e-64
5.48587e-64
5.96569e-64
6.48871e-64
7.05588e-64
7.66781e-64
8.32468e-64
9.02615e-64
9.77124e-64
1.05582e-63
1.13845e-63
1.22464e-63
1.31393e-63
1.40571e-63
1.49923e-63
1.59361e-63
1.68781e-63
1.7806e-63
1.87059e-63
1.95624e-63
2.03581e-63
2.10744e-63
2.16911e-63
2.21868e-63
2.25397e-63
2.27273e-63
3.90251e-63
3.87035e-63
3.80981e-63
3.72474e-63
3.61889e-63
3.4959e-63
3.35921e-63
3.21204e-63
3.05733e-63
2.89774e-63
2.73564e-63
2.57311e-63
2.41194e-63
2.25366e-63
2.09952e-63
1.95056e-63
1.80758e-63
1.6712e-63
1.54184e-63
1.4198e-63
1.30524e-63
1.1982e-63
1.09862e-63
1.0064e-63
9.21334e-64
8.4321e-64
7.71762e-64
7.06705e-64
6.47742e-64
5.94573e-64
5.46897e-64
5.04423e-64
4.66873e-64
4.33983e-64
4.05512e-64
3.8124e-64
3.6097e-64
3.44534e-64
3.31786e-64
3.22612e-64
3.16922e-64
3.14656e-64
3.15781e-64
3.2029e-64
3.28206e-64
3.39573e-64
3.54463e-64
3.72968e-64
3.95205e-64
4.21307e-64
4.51424e-64
4.8572e-64
5.24368e-64
5.67546e-64
6.15433e-64
6.682e-64
7.26007e-64
7.88991e-64
8.57263e-64
9.30889e-64
1.00989e-63
1.09422e-63
1.18376e-63
1.27829e-63
1.37751e-63
1.48098e-63
1.58812e-63
1.69821e-63
1.81037e-63
1.92353e-63
2.03643e-63
2.14762e-63
2.25543e-63
2.35802e-63
2.45332e-63
2.53908e-63
2.61291e-63
2.67225e-63
2.71448e-63
2.73693e-63
4.69493e-63
4.65642e-63
4.58395e-63
4.48209e-63
4.35534e-63
4.20805e-63
4.04433e-63
3.86803e-63
3.68266e-63
3.49141e-63
3.29712e-63
3.10228e-63
2.90902e-63
2.71918e-63
2.53426e-63
2.35551e-63
2.18387e-63
2.02011e-63
1.86473e-63
1.71809e-63
1.58038e-63
1.45165e-63
1.33187e-63
1.22087e-63
1.11845e-63
1.02435e-63
9.38241e-64
8.59802e-64
7.88677e-64
7.2451e-64
6.66944e-64
6.15634e-64
5.70249e-64
5.30478e-64
4.96032e-64
4.66649e-64
4.42097e-64
4.22173e-64
4.06705e-64
3.95555e-64
3.88618e-64
3.8582e-64
3.87121e-64
3.92513e-64
4.02021e-64
4.15698e-64
4.33626e-64
4.55917e-64
4.82707e-64
5.14152e-64
5.5043e-64
5.91735e-64
6.38271e-64
6.90247e-64
7.47873e-64
8.11353e-64
8.80872e-64
9.56593e-64
1.03864e-63
1.1271e-63
1.22198e-63
1.32323e-63
1.43069e-63
1.54413e-63
1.66314e-63
1.78722e-63
1.91567e-63
2.04763e-63
2.18203e-63
2.3176e-63
2.45284e-63
2.586e-63
2.71511e-63
2.83793e-63
2.95201e-63
3.05466e-63
3.14301e-63
3.21403e-63
3.26456e-63
3.29141e-63
5.64218e-63
5.59609e-63
5.50935e-63
5.38741e-63
5.23566e-63
5.05931e-63
4.86327e-63
4.65214e-63
4.43013e-63
4.20104e-63
3.96828e-63
3.73481e-63
3.50321e-63
3.27565e-63
3.05396e-63
2.8396e-63
2.63374e-63
2.43726e-63
2.2508e-63
2.07477e-63
1.90942e-63
1.75481e-63
1.61088e-63
1.47748e-63
1.35434e-63
1.24115e-63
1.13755e-63
1.04313e-63
9.57486e-64
8.80188e-64
8.10816e-64
7.48957e-64
6.94219e-64
6.46231e-64
6.0465e-64
5.69164e-64
5.39497e-64
5.15405e-64
4.96686e-64
4.83173e-64
4.74741e-64
4.71301e-64
4.72806e-64
4.79245e-64
4.90646e-64
5.07071e-64
5.2862e-64
5.55421e-64
5.87635e-64
6.25448e-64
6.69072e-64
7.18733e-64
7.74673e-64
8.37141e-64
9.06383e-64
9.8264e-64
1.06613e-63
1.15705e-63
1.25553e-63
1.36168e-63
1.47551e-63
1.59695e-63
1.72582e-63
1.86181e-63
2.00446e-63
2.15315e-63
2.30704e-63
2.46512e-63
2.62609e-63
2.78843e-63
2.95035e-63
3.10977e-63
3.2643e-63
3.4113e-63
3.54782e-63
3.67066e-63
3.77637e-63
3.86133e-63
3.92179e-63
3.95391e-63
6.77474e-63
6.71958e-63
6.61576e-63
6.46981e-63
6.28818e-63
6.07707e-63
5.84239e-63
5.58961e-63
5.32378e-63
5.04945e-63
4.77068e-63
4.49104e-63
4.2136e-63
3.94096e-63
3.67531e-63
3.4184e-63
3.17163e-63
2.93607e-63
2.71246e-63
2.50133e-63
2.30295e-63
2.11741e-63
1.94465e-63
1.78447e-63
1.63658e-63
1.5006e-63
1.3761e-63
1.2626e-63
1.15962e-63
1.06664e-63
9.83166e-64
9.0871e-64
8.42801e-64
7.84998e-64
7.34895e-64
6.92118e-64
6.56338e-64
6.27266e-64
6.0466e-64
5.88321e-64
5.78098e-64
5.73887e-64
5.75628e-64
5.8331e-64
5.96964e-64
6.16663e-64
6.42524e-64
6.74701e-64
7.13384e-64
7.58792e-64
8.11176e-64
8.70805e-64
9.37965e-64
1.01295e-63
1.09605e-63
1.18756e-63
1.28772e-63
1.39678e-63
1.51488e-63
1.64216e-63
1.77861e-63
1.92416e-63
2.07858e-63
2.24151e-63
2.41239e-63
2.59047e-63
2.77476e-63
2.96403e-63
3.15674e-63
3.35107e-63
3.54487e-63
3.73566e-63
3.92058e-63
4.09647e-63
4.25981e-63
4.40677e-63
4.53323e-63
4.63487e-63
4.70718e-63
4.7456e-63
8.12905e-63
8.06305e-63
7.93881e-63
7.76414e-63
7.54676e-63
7.29409e-63
7.01318e-63
6.71059e-63
6.39236e-63
6.06393e-63
5.73015e-63
5.3953e-63
5.06305e-63
4.73652e-63
4.41831e-63
4.11053e-63
3.81486e-63
3.53257e-63
3.26457e-63
3.01148e-63
2.77362e-63
2.55112e-63
2.3439e-63
2.15174e-63
1.97427e-63
1.81106e-63
1.66159e-63
1.5253e-63
1.40159e-63
1.28988e-63
1.18956e-63
1.10006e-63
1.0208e-63
9.51274e-64
8.90987e-64
8.39499e-64
7.96414e-64
7.6139e-64
7.34136e-64
7.14416e-64
7.02048e-64
6.96909e-64
6.98926e-64
7.08085e-64
7.24421e-64
7.48023e-64
7.79027e-64
8.17616e-64
8.64015e-64
9.18485e-64
9.81322e-64
1.05285e-63
1.1334e-63
1.22332e-63
1.32297e-63
1.43268e-63
1.55276e-63
1.68346e-63
1.825e-63
1.9775e-63
2.14097e-63
2.31532e-63
2.50026e-63
2.69537e-63
2.89997e-63
3.11317e-63
3.33378e-63
3.56031e-63
3.79096e-63
4.02351e-63
4.25542e-63
4.48369e-63
4.70494e-63
4.91536e-63
5.11076e-63
5.28654e-63
5.43781e-63
5.55938e-63
5.64586e-63
5.69181e-63
9.74873e-63
9.66975e-63
9.52108e-63
9.31206e-63
9.05191e-63
8.74953e-63
8.41333e-63
8.05117e-63
7.67026e-63
7.27713e-63
6.87757e-63
6.47669e-63
6.07889e-63
5.68791e-63
5.30686e-63
4.93826e-63
4.58412e-63
4.24597e-63
3.9249e-63
3.62163e-63
3.33659e-63
3.06991e-63
2.82151e-63
2.5911e-63
2.37829e-63
2.18253e-63
2.00322e-63
1.83968e-63
1.69122e-63
1.55712e-63
1.43667e-63
1.32918e-63
1.23398e-63
1.15044e-63
1.07798e-63
1.01608e-63
9.64262e-64
9.22122e-64
8.8931e-64
8.65545e-64
8.50609e-64
8.44354e-64
8.46694e-64
8.57609e-64
8.77143e-64
9.05398e-64
9.42537e-64
9.88777e-64
1.04438e-63
1.10967e-63
1.18498e-63
1.27071e-63
1.36725e-63
1.47502e-63
1.59443e-63
1.72587e-63
1.86972e-63
2.02629e-63
2.19582e-63
2.37845e-63
2.5742e-63
2.78295e-63
3.00436e-63
3.23792e-63
3.48281e-63
3.73797e-63
4.00198e-63
4.27306e-63
4.54903e-63
4.82727e-63
5.10471e-63
5.37779e-63
5.64246e-63
5.89416e-63
6.12788e-63
6.33813e-63
6.51905e-63
6.66444e-63
6.76787e-63
6.82283e-63
1.16859e-62
1.15914e-62
1.14135e-62
1.11634e-62
1.08521e-62
1.04903e-62
1.00879e-62
9.65452e-63
9.19864e-63
8.72811e-63
8.24988e-63
7.77003e-63
7.29384e-63
6.82578e-63
6.36957e-63
5.92824e-63
5.50418e-63
5.09923e-63
4.71469e-63
4.35144e-63
4.00998e-63
3.69048e-63
3.39283e-63
3.11672e-63
2.86164e-63
2.62698e-63
2.41199e-63
2.21589e-63
2.03784e-63
1.87698e-63
1.73247e-63
1.60347e-63
1.48921e-63
1.38892e-63
1.30191e-63
1.22757e-63
1.16531e-63
1.11466e-63
1.0752e-63
1.0466e-63
1.02859e-63
1.02099e-63
1.02371e-63
1.03672e-63
1.06006e-63
1.09387e-63
1.13833e-63
1.1937e-63
1.2603e-63
1.3385e-63
1.42871e-63
1.5314e-63
1.64703e-63
1.77611e-63
1.91912e-63
2.07653e-63
2.24879e-63
2.43625e-63
2.63922e-63
2.85785e-63
3.09217e-63
3.34202e-63
3.60702e-63
3.88652e-63
4.17957e-63
4.48488e-63
4.80076e-63
5.12507e-63
5.45522e-63
5.78807e-63
6.11995e-63
6.44659e-63
6.76315e-63
7.0642e-63
7.34373e-63
7.59519e-63
7.81155e-63
7.98542e-63
8.10912e-63
8.17483e-63
1.4003e-62
1.389e-62
1.36771e-62
1.33778e-62
1.30053e-62
1.25723e-62
1.20909e-62
1.15723e-62
1.10267e-62
1.04636e-62
9.89126e-63
9.31696e-63
8.747e-63
8.18675e-63
7.64065e-63
7.11233e-63
6.60466e-63
6.11982e-63
5.65938e-63
5.22441e-63
4.81548e-63
4.43281e-63
4.07628e-63
3.74551e-63
3.43991e-63
3.15873e-63
2.90109e-63
2.66605e-63
2.45262e-63
2.25977e-63
2.08649e-63
1.93179e-63
1.79473e-63
1.67442e-63
1.57002e-63
1.48079e-63
1.40606e-63
1.34523e-63
1.29782e-63
1.26342e-63
1.24173e-63
1.23253e-63
1.23569e-63
1.25118e-63
1.27907e-63
1.31951e-63
1.37271e-63
1.43898e-63
1.51871e-63
1.61233e-63
1.72034e-63
1.84329e-63
1.98173e-63
2.13626e-63
2.30746e-63
2.4959e-63
2.70209e-63
2.92648e-63
3.1694e-63
3.43106e-63
3.71147e-63
4.01044e-63
4.32752e-63
4.66193e-63
5.01254e-63
5.3778e-63
5.75567e-63
6.14363e-63
6.53854e-63
6.93667e-63
7.33361e-63
7.72428e-63
8.10289e-63
8.46293e-63
8.79723e-63
9.09794e-63
9.35669e-63
9.56461e-63
9.71253e-63
9.79111e-63
1.67747e-62
1.66394e-62
1.63847e-62
1.60266e-62
1.5581e-62
1.50629e-62
1.44868e-62
1.38662e-62
1.32134e-62
1.25395e-62
1.18546e-62
1.11673e-62
1.04852e-62
9.81467e-63
9.16105e-63
8.52869e-63
7.921e-63
7.34061e-63
6.7894e-63
6.26864e-63
5.77902e-63
5.32081e-63
4.89387e-63
4.49774e-63
4.13171e-63
3.7949e-63
3.48627e-63
3.20467e-63
2.94893e-63
2.71782e-63
2.51015e-63
2.32472e-63
2.16041e-63
2.01615e-63
1.89096e-63
1.78393e-63
1.69427e-63
1.62127e-63
1.56435e-63
1.52302e-63
1.49692e-63
1.48578e-63
1.48946e-63
1.50793e-63
1.54124e-63
1.58958e-63
1.65322e-63
1.73251e-63
1.82792e-63
1.93997e-63
2.06924e-63
2.21638e-63
2.38208e-63
2.56702e-63
2.77192e-63
2.99743e-63
3.24418e-63
3.51268e-63
3.80336e-63
4.11643e-63
4.45193e-63
4.80962e-63
5.18895e-63
5.589e-63
6.00841e-63
6.44531e-63
6.8973e-63
7.36133e-63
7.83366e-63
8.30982e-63
8.78456e-63
9.25178e-63
9.70456e-63
1.01351e-62
1.05349e-62
1.08945e-62
1.12039e-62
1.14526e-62
1.16294e-62
1.17234e-62
2.00902e-62
1.99283e-62
1.96236e-62
1.91952e-62
1.86619e-62
1.8042e-62
1.73527e-62
1.66101e-62
1.5829e-62
1.50227e-62
1.42031e-62
1.33807e-62
1.25644e-62
1.1762e-62
1.09797e-62
1.02229e-62
9.49561e-63
8.80093e-63
8.14115e-63
7.51777e-63
6.93165e-63
6.3831e-63
5.87193e-63
5.39763e-63
4.95934e-63
4.556e-63
4.18638e-63
3.8491e-63
3.54277e-63
3.26592e-63
3.0171e-63
2.79492e-63
2.59802e-63
2.42513e-63
2.27506e-63
2.14675e-63
2.03924e-63
1.95168e-63
1.88338e-63
1.83376e-63
1.80238e-63
1.78892e-63
1.79321e-63
1.81521e-63
1.855e-63
1.91278e-63
1.98888e-63
2.08373e-63
2.19787e-63
2.33193e-63
2.4866e-63
2.66266e-63
2.86092e-63
3.08221e-63
3.32737e-63
3.59719e-63
3.89241e-63
4.21365e-63
4.56139e-63
4.93592e-63
5.33726e-63
5.76514e-63
6.21888e-63
6.69739e-63
7.19904e-63
7.72161e-63
8.26219e-63
8.81716e-63
9.38204e-63
9.9515e-63
1.05192e-62
1.1078e-62
1.16194e-62
1.21343e-62
1.26124e-62
1.30424e-62
1.34124e-62
1.37097e-62
1.39212e-62
1.40336e-62
2.40564e-62
2.38627e-62
2.34981e-62
2.29856e-62
2.23475e-62
2.16058e-62
2.07811e-62
1.98926e-62
1.8958e-62
1.79932e-62
1.70125e-62
1.60284e-62
1.50516e-62
1.40914e-62
1.31553e-62
1.22496e-62
1.13792e-62
1.05478e-62
9.75816e-63
9.01205e-63
8.3105e-63
7.65388e-63
7.04198e-63
6.47418e-63
5.94946e-63
5.46655e-63
5.02398e-63
4.62012e-63
4.25327e-63
3.9217e-63
3.6237e-63
3.35756e-63
3.12168e-63
2.91454e-63
2.73473e-63
2.58096e-63
2.45209e-63
2.34712e-63
2.26521e-63
2.20566e-63
2.16795e-63
2.15171e-63
2.15672e-63
2.18294e-63
2.23045e-63
2.29951e-63
2.39049e-63
2.50393e-63
2.64045e-63
2.8008e-63
2.98583e-63
3.19645e-63
3.43362e-63
3.69835e-63
3.99163e-63
4.31441e-63
4.66755e-63
5.05182e-63
5.46779e-63
5.91578e-63
6.39583e-63
6.90761e-63
7.45031e-63
8.02261e-63
8.62257e-63
9.24754e-63
9.89404e-63
1.05577e-62
1.12333e-62
1.19143e-62
1.25932e-62
1.32613e-62
1.39088e-62
1.45245e-62
1.50962e-62
1.56104e-62
1.60528e-62
1.64083e-62
1.66612e-62
1.67955e-62
2.8801e-62
2.85693e-62
2.81331e-62
2.75199e-62
2.67565e-62
2.58691e-62
2.48824e-62
2.38193e-62
2.2701e-62
2.15466e-62
2.03732e-62
1.91957e-62
1.80269e-62
1.68779e-62
1.57578e-62
1.4674e-62
1.36325e-62
1.26375e-62
1.16925e-62
1.07996e-62
9.95998e-63
9.1741e-63
8.44171e-63
7.76207e-63
7.13397e-63
6.55589e-63
6.02606e-63
5.54255e-63
5.10333e-63
4.70632e-63
4.34947e-63
4.03076e-63
3.74827e-63
3.50016e-63
3.28477e-63
3.10054e-63
2.94613e-63
2.82032e-63
2.72211e-63
2.65069e-63
2.6054e-63
2.58582e-63
2.59168e-63
2.62292e-63
2.67966e-63
2.76218e-63
2.87096e-63
3.00659e-63
3.16985e-63
3.36164e-63
3.58294e-63
3.83486e-63
4.11855e-63
4.4352e-63
4.78599e-63
5.17206e-63
5.59446e-63
6.05408e-63
6.55159e-63
7.08739e-63
7.66154e-63
8.2736e-63
8.92265e-63
9.60708e-63
1.03246e-62
1.1072e-62
1.18451e-62
1.26388e-62
1.34466e-62
1.42609e-62
1.50728e-62
1.58718e-62
1.6646e-62
1.73822e-62
1.80658e-62
1.86806e-62
1.92096e-62
1.96347e-62
1.99371e-62
2.00978e-62
3.4477e-62
3.41998e-62
3.3678e-62
3.29442e-62
3.20309e-62
3.09692e-62
2.97886e-62
2.85167e-62
2.71788e-62
2.57976e-62
2.43936e-62
2.29847e-62
2.15863e-62
2.02114e-62
1.88712e-62
1.75744e-62
1.6328e-62
1.51374e-62
1.40066e-62
1.2938e-62
1.19332e-62
1.09927e-62
1.01162e-62
9.3028e-63
8.55103e-63
7.85911e-63
7.22491e-63
6.64613e-63
6.12033e-63
5.64505e-63
5.21782e-63
4.83622e-63
4.49796e-63
4.20085e-63
3.94289e-63
3.72224e-63
3.53726e-63
3.38652e-63
3.26882e-63
3.18317e-63
3.12882e-63
3.10522e-63
3.11208e-63
3.14932e-63
3.21707e-63
3.31568e-63
3.4457e-63
3.60787e-63
3.80309e-63
4.03243e-63
4.29709e-63
4.59837e-63
4.93766e-63
5.31636e-63
5.73591e-63
6.19764e-63
6.70282e-63
7.2525e-63
7.8475e-63
8.48829e-63
9.17492e-63
9.90688e-63
1.06831e-62
1.15016e-62
1.23596e-62
1.32533e-62
1.41778e-62
1.51269e-62
1.60929e-62
1.70667e-62
1.80375e-62
1.89928e-62
1.99186e-62
2.0799e-62
2.16163e-62
2.23515e-62
2.29841e-62
2.34923e-62
2.38539e-62
2.4046e-62
4.12672e-62
4.09356e-62
4.03113e-62
3.94334e-62
3.83408e-62
3.70705e-62
3.5658e-62
3.41363e-62
3.25355e-62
3.0883e-62
2.92032e-62
2.75175e-62
2.58443e-62
2.41993e-62
2.25957e-62
2.1044e-62
1.95526e-62
1.81281e-62
1.67749e-62
1.54963e-62
1.42939e-62
1.31684e-62
1.21195e-62
1.1146e-62
1.02463e-62
9.4182e-63
8.65916e-63
7.96641e-63
7.33705e-63
6.76813e-63
6.2567e-63
5.79988e-63
5.39491e-63
5.03919e-63
4.73031e-63
4.46607e-63
4.24453e-63
4.06396e-63
3.92293e-63
3.82026e-63
3.75503e-63
3.72662e-63
3.73466e-63
3.77905e-63
3.85995e-63
3.97778e-63
4.13319e-63
4.32706e-63
4.56047e-63
4.8347e-63
5.15118e-63
5.51147e-63
5.91721e-63
6.3701e-63
6.87183e-63
7.42402e-63
8.02815e-63
8.6855e-63
9.39705e-63
1.01633e-62
1.09844e-62
1.18598e-62
1.27879e-62
1.37667e-62
1.47927e-62
1.58614e-62
1.6967e-62
1.81018e-62
1.92569e-62
2.04213e-62
2.15821e-62
2.27245e-62
2.38315e-62
2.48841e-62
2.58614e-62
2.67405e-62
2.74969e-62
2.81046e-62
2.85369e-62
2.87666e-62
4.93906e-62
4.89938e-62
4.82468e-62
4.71966e-62
4.58893e-62
4.43696e-62
4.26797e-62
4.08591e-62
3.89438e-62
3.69667e-62
3.4957e-62
3.29401e-62
3.09382e-62
2.897e-62
2.70513e-62
2.51947e-62
2.34103e-62
2.17058e-62
2.00867e-62
1.85567e-62
1.71179e-62
1.57712e-62
1.4516e-62
1.33511e-62
1.22744e-62
1.12834e-62
1.0375e-62
9.54592e-63
8.79269e-63
8.11176e-63
7.4996e-63
6.95279e-63
6.46802e-63
6.04217e-63
5.67237e-63
5.356e-63
5.0907e-63
4.87444e-63
4.70549e-63
4.58244e-63
4.5042e-63
4.47001e-63
4.47943e-63
4.53235e-63
4.62896e-63
4.76974e-63
4.95549e-63
5.18724e-63
5.4663e-63
5.79419e-63
6.17261e-63
6.60343e-63
7.08861e-63
7.63018e-63
8.23016e-63
8.89048e-63
9.61291e-63
1.0399e-62
1.12499e-62
1.21662e-62
1.31481e-62
1.41948e-62
1.53047e-62
1.6475e-62
1.77019e-62
1.89799e-62
2.03018e-62
2.16588e-62
2.304e-62
2.44322e-62
2.58203e-62
2.71862e-62
2.85098e-62
2.97685e-62
3.0937e-62
3.19881e-62
3.28925e-62
3.36192e-62
3.41361e-62
3.44108e-62
5.91087e-62
5.8634e-62
5.77404e-62
5.64839e-62
5.49199e-62
5.31017e-62
5.10799e-62
4.89017e-62
4.66103e-62
4.42449e-62
4.18403e-62
3.94273e-62
3.70321e-62
3.46774e-62
3.23817e-62
3.01603e-62
2.80253e-62
2.59859e-62
2.40486e-62
2.22179e-62
2.04964e-62
1.88849e-62
1.7383e-62
1.59891e-62
1.47007e-62
1.35148e-62
1.24277e-62
1.14356e-62
1.05341e-62
9.7192e-63
8.98656e-63
8.33209e-63
7.75184e-63
7.2421e-63
6.79942e-63
6.42066e-63
6.10302e-63
5.84405e-63
5.64169e-63
5.49424e-63
5.40041e-63
5.35928e-63
5.37034e-63
5.43343e-63
5.54879e-63
5.717e-63
5.939e-63
6.21603e-63
6.54965e-63
6.94167e-63
7.39414e-63
7.90927e-63
8.48941e-63
9.13699e-63
9.85442e-63
1.0644e-62
1.15079e-62
1.24478e-62
1.34653e-62
1.4561e-62
1.57351e-62
1.69867e-62
1.83138e-62
1.97133e-62
2.11803e-62
2.27084e-62
2.42891e-62
2.59117e-62