/*--------------------------------*- C++ -*----------------------------------*\
  =========                 |
  \\      /  F ield         | OpenFOAM: The Open Source CFD Toolbox
   \\    /   O peration     | Website:  https://openfoam.org
    \\  /    A nd           | Version:  11
     \\/     M anipulation  |
\*---------------------------------------------------------------------------*/
FoamFile
{
    format      ascii;
    class       volScalarField;
    location    "619";
    object      p;
}
// * * * * * * * * * * * * * * * * * * * * * * * * * * * * * * * * * * * * * //

dimensions      [0 2 -2 0 0 0 0];

internalField   nonuniform List<scalar> 
427520
(
0.559222
0.556141
0.553814
0.552372
0.551376
0.550619
0.550029
0.549567
0.549201
0.548908
0.548671
0.548476
0.548316
0.548181
0.548068
0.547971
0.547887
0.547815
0.547751
0.547695
0.547646
0.547602
0.547563
0.547528
0.547496
0.547468
0.547442
0.54742
0.547399
0.547381
0.547365
0.547351
0.547339
0.547328
0.547319
0.547312
0.547306
0.547302
0.547299
0.547297
0.547297
0.547299
0.547302
0.547306
0.547312
0.547319
0.547328
0.547339
0.547351
0.547365
0.547381
0.547399
0.54742
0.547442
0.547468
0.547496
0.547528
0.547563
0.547602
0.547646
0.547695
0.547751
0.547815
0.547887
0.547971
0.548068
0.548181
0.548316
0.548476
0.548671
0.548908
0.549201
0.549567
0.550029
0.550619
0.551376
0.552372
0.553814
0.556141
0.559222
0.550466
0.5505
0.550372
0.55014
0.549876
0.549612
0.549362
0.549133
0.548927
0.548744
0.548581
0.548438
0.548311
0.548199
0.548101
0.548013
0.547935
0.547866
0.547804
0.547749
0.547699
0.547655
0.547615
0.547579
0.547546
0.547517
0.54749
0.547467
0.547446
0.547427
0.54741
0.547395
0.547382
0.547371
0.547362
0.547354
0.547348
0.547343
0.54734
0.547339
0.547339
0.54734
0.547343
0.547348
0.547354
0.547362
0.547371
0.547382
0.547395
0.54741
0.547427
0.547446
0.547467
0.54749
0.547517
0.547546
0.547579
0.547615
0.547655
0.547699
0.547749
0.547804
0.547866
0.547935
0.548013
0.548101
0.548199
0.548311
0.548438
0.548581
0.548744
0.548927
0.549133
0.549362
0.549612
0.549876
0.55014
0.550372
0.5505
0.550466
0.548955
0.549143
0.549275
0.549278
0.549203
0.549093
0.548967
0.548836
0.548707
0.548582
0.548465
0.548356
0.548256
0.548164
0.548081
0.548005
0.547936
0.547874
0.547817
0.547766
0.547719
0.547677
0.547639
0.547604
0.547573
0.547544
0.547518
0.547495
0.547474
0.547456
0.547439
0.547424
0.547412
0.5474
0.547391
0.547383
0.547377
0.547373
0.54737
0.547368
0.547368
0.54737
0.547373
0.547377
0.547383
0.547391
0.5474
0.547412
0.547424
0.547439
0.547456
0.547474
0.547495
0.547518
0.547544
0.547573
0.547604
0.547639
0.547677
0.547719
0.547766
0.547817
0.547874
0.547936
0.548005
0.548081
0.548164
0.548256
0.548356
0.548465
0.548582
0.548707
0.548836
0.548967
0.549093
0.549203
0.549278
0.549275
0.549143
0.548955
0.548251
0.548396
0.548519
0.548576
0.548584
0.548563
0.548521
0.548466
0.548402
0.548334
0.548264
0.548195
0.548128
0.548064
0.548002
0.547944
0.54789
0.54784
0.547793
0.54775
0.54771
0.547673
0.547639
0.547608
0.547579
0.547553
0.547529
0.547508
0.547488
0.547471
0.547455
0.547441
0.547429
0.547419
0.54741
0.547402
0.547397
0.547392
0.547389
0.547388
0.547388
0.547389
0.547392
0.547397
0.547402
0.54741
0.547419
0.547429
0.547441
0.547455
0.547471
0.547488
0.547508
0.547529
0.547553
0.547579
0.547608
0.547639
0.547673
0.54771
0.54775
0.547793
0.54784
0.54789
0.547944
0.548002
0.548064
0.548128
0.548195
0.548264
0.548334
0.548402
0.548466
0.548521
0.548563
0.548584
0.548576
0.548519
0.548396
0.548251
0.547914
0.548015
0.54811
0.548171
0.548203
0.548213
0.548206
0.548187
0.548159
0.548123
0.548083
0.548041
0.547997
0.547953
0.547909
0.547867
0.547826
0.547787
0.54775
0.547715
0.547682
0.547651
0.547622
0.547595
0.547571
0.547548
0.547527
0.547507
0.54749
0.547474
0.54746
0.547447
0.547436
0.547427
0.547419
0.547412
0.547406
0.547402
0.5474
0.547398
0.547398
0.5474
0.547402
0.547406
0.547412
0.547419
0.547427
0.547436
0.547447
0.54746
0.547474
0.54749
0.547507
0.547527
0.547548
0.547571
0.547595
0.547622
0.547651
0.547682
0.547715
0.54775
0.547787
0.547826
0.547867
0.547909
0.547953
0.547997
0.548041
0.548083
0.548123
0.548159
0.548187
0.548206
0.548213
0.548203
0.548171
0.54811
0.548015
0.547914
0.547711
0.547781
0.547851
0.547902
0.547936
0.547956
0.547965
0.547964
0.547955
0.547939
0.547918
0.547894
0.547867
0.547839
0.54781
0.54778
0.547751
0.547722
0.547694
0.547667
0.547641
0.547616
0.547593
0.547571
0.54755
0.547531
0.547513
0.547496
0.547481
0.547467
0.547455
0.547444
0.547434
0.547426
0.547418
0.547412
0.547407
0.547404
0.547401
0.5474
0.5474
0.547401
0.547404
0.547407
0.547412
0.547418
0.547426
0.547434
0.547444
0.547455
0.547467
0.547481
0.547496
0.547513
0.547531
0.54755
0.547571
0.547593
0.547616
0.547641
0.547667
0.547694
0.547722
0.547751
0.54778
0.54781
0.547839
0.547867
0.547894
0.547918
0.547939
0.547955
0.547964
0.547965
0.547956
0.547936
0.547902
0.547851
0.547781
0.547711
0.547578
0.547629
0.54768
0.547721
0.547751
0.547772
0.547786
0.547793
0.547793
0.547788
0.547779
0.547766
0.547751
0.547733
0.547715
0.547695
0.547674
0.547653
0.547633
0.547612
0.547593
0.547573
0.547555
0.547537
0.547521
0.547505
0.54749
0.547476
0.547464
0.547452
0.547442
0.547432
0.547424
0.547416
0.54741
0.547405
0.547401
0.547398
0.547395
0.547394
0.547394
0.547395
0.547398
0.547401
0.547405
0.54741
0.547416
0.547424
0.547432
0.547442
0.547452
0.547464
0.547476
0.54749
0.547505
0.547521
0.547537
0.547555
0.547573
0.547593
0.547612
0.547633
0.547653
0.547674
0.547695
0.547715
0.547733
0.547751
0.547766
0.547779
0.547788
0.547793
0.547793
0.547786
0.547772
0.547751
0.547721
0.54768
0.547629
0.547578
0.547483
0.54752
0.547558
0.54759
0.547615
0.547635
0.547649
0.547659
0.547664
0.547664
0.547662
0.547656
0.547648
0.547638
0.547626
0.547613
0.547599
0.547585
0.54757
0.547556
0.547541
0.547526
0.547512
0.547498
0.547485
0.547473
0.547461
0.54745
0.54744
0.54743
0.547421
0.547413
0.547406
0.5474
0.547395
0.547391
0.547387
0.547384
0.547383
0.547382
0.547382
0.547383
0.547384
0.547387
0.547391
0.547395
0.5474
0.547406
0.547413
0.547421
0.54743
0.54744
0.54745
0.547461
0.547473
0.547485
0.547498
0.547512
0.547526
0.547541
0.547556
0.54757
0.547585
0.547599
0.547613
0.547626
0.547638
0.547648
0.547656
0.547662
0.547664
0.547664
0.547659
0.547649
0.547635
0.547615
0.54759
0.547558
0.54752
0.547483
0.54741
0.547438
0.547467
0.547492
0.547512
0.547529
0.547543
0.547552
0.547559
0.547563
0.547563
0.547562
0.547558
0.547553
0.547546
0.547538
0.547529
0.54752
0.547509
0.547499
0.547488
0.547477
0.547467
0.547456
0.547446
0.547437
0.547427
0.547419
0.54741
0.547403
0.547396
0.547389
0.547384
0.547379
0.547374
0.547371
0.547368
0.547366
0.547364
0.547363
0.547363
0.547364
0.547366
0.547368
0.547371
0.547374
0.547379
0.547384
0.547389
0.547396
0.547403
0.54741
0.547419
0.547427
0.547437
0.547446
0.547456
0.547467
0.547477
0.547488
0.547499
0.547509
0.54752
0.547529
0.547538
0.547546
0.547553
0.547558
0.547562
0.547563
0.547563
0.547559
0.547552
0.547543
0.547529
0.547512
0.547492
0.547467
0.547438
0.54741
0.547352
0.547373
0.547395
0.547414
0.547431
0.547445
0.547457
0.547466
0.547473
0.547478
0.54748
0.547481
0.54748
0.547478
0.547474
0.547469
0.547464
0.547458
0.547451
0.547444
0.547436
0.547428
0.547421
0.547413
0.547405
0.547398
0.547391
0.547384
0.547378
0.547372
0.547366
0.547361
0.547357
0.547353
0.547349
0.547346
0.547344
0.547342
0.547341
0.54734
0.54734
0.547341
0.547342
0.547344
0.547346
0.547349
0.547353
0.547357
0.547361
0.547366
0.547372
0.547378
0.547384
0.547391
0.547398
0.547405
0.547413
0.547421
0.547428
0.547436
0.547444
0.547451
0.547458
0.547464
0.547469
0.547474
0.547478
0.54748
0.547481
0.54748
0.547478
0.547473
0.547466
0.547457
0.547445
0.547431
0.547414
0.547395
0.547373
0.547352
0.547302
0.547318
0.547336
0.547351
0.547364
0.547376
0.547386
0.547394
0.5474
0.547405
0.547409
0.547411
0.547411
0.547411
0.547409
0.547407
0.547403
0.5474
0.547395
0.54739
0.547385
0.54738
0.547374
0.547369
0.547363
0.547358
0.547352
0.547347
0.547342
0.547338
0.547334
0.54733
0.547326
0.547323
0.54732
0.547318
0.547316
0.547315
0.547314
0.547313
0.547313
0.547314
0.547315
0.547316
0.547318
0.54732
0.547323
0.547326
0.54733
0.547334
0.547338
0.547342
0.547347
0.547352
0.547358
0.547363
0.547369
0.547374
0.54738
0.547385
0.54739
0.547395
0.5474
0.547403
0.547407
0.547409
0.547411
0.547411
0.547411
0.547409
0.547405
0.5474
0.547394
0.547386
0.547376
0.547364
0.547351
0.547336
0.547318
0.547302
0.547259
0.547271
0.547284
0.547296
0.547307
0.547316
0.547325
0.547332
0.547338
0.547342
0.547346
0.547348
0.54735
0.54735
0.54735
0.547349
0.547348
0.547345
0.547343
0.54734
0.547336
0.547332
0.547329
0.547325
0.547321
0.547317
0.547313
0.547309
0.547306
0.547302
0.547299
0.547296
0.547293
0.547291
0.547289
0.547287
0.547286
0.547284
0.547284
0.547283
0.547283
0.547284
0.547284
0.547286
0.547287
0.547289
0.547291
0.547293
0.547296
0.547299
0.547302
0.547306
0.547309
0.547313
0.547317
0.547321
0.547325
0.547329
0.547332
0.547336
0.54734
0.547343
0.547345
0.547348
0.547349
0.54735
0.54735
0.54735
0.547348
0.547346
0.547342
0.547338
0.547332
0.547325
0.547316
0.547307
0.547296
0.547284
0.547271
0.547259
0.547219
0.547229
0.547239
0.547248
0.547257
0.547264
0.547271
0.547277
0.547282
0.547287
0.54729
0.547293
0.547295
0.547296
0.547296
0.547296
0.547295
0.547294
0.547293
0.547291
0.547289
0.547286
0.547284
0.547281
0.547278
0.547276
0.547273
0.54727
0.547268
0.547265
0.547263
0.54726
0.547258
0.547257
0.547255
0.547254
0.547253
0.547252
0.547251
0.547251
0.547251
0.547251
0.547252
0.547253
0.547254
0.547255
0.547257
0.547258
0.54726
0.547263
0.547265
0.547268
0.54727
0.547273
0.547276
0.547278
0.547281
0.547284
0.547286
0.547289
0.547291
0.547293
0.547294
0.547295
0.547296
0.547296
0.547296
0.547295
0.547293
0.54729
0.547287
0.547282
0.547277
0.547271
0.547264
0.547257
0.547248
0.547239
0.547229
0.547219
0.547182
0.547189
0.547197
0.547205
0.547211
0.547217
0.547223
0.547228
0.547232
0.547236
0.547239
0.547242
0.547244
0.547245
0.547246
0.547247
0.547247
0.547246
0.547245
0.547244
0.547243
0.547242
0.54724
0.547238
0.547237
0.547235
0.547233
0.547231
0.547229
0.547227
0.547225
0.547224
0.547222
0.547221
0.54722
0.547219
0.547218
0.547218
0.547217
0.547217
0.547217
0.547217
0.547218
0.547218
0.547219
0.54722
0.547221
0.547222
0.547224
0.547225
0.547227
0.547229
0.547231
0.547233
0.547235
0.547237
0.547238
0.54724
0.547242
0.547243
0.547244
0.547245
0.547246
0.547247
0.547247
0.547246
0.547245
0.547244
0.547242
0.547239
0.547236
0.547232
0.547228
0.547223
0.547217
0.547211
0.547205
0.547197
0.547189
0.547182
0.547146
0.547152
0.547158
0.547164
0.547169
0.547174
0.547178
0.547183
0.547186
0.547189
0.547192
0.547195
0.547197
0.547198
0.547199
0.5472
0.5472
0.5472
0.5472
0.5472
0.547199
0.547198
0.547197
0.547196
0.547195
0.547194
0.547193
0.547191
0.54719
0.547189
0.547188
0.547187
0.547186
0.547185
0.547184
0.547183
0.547183
0.547182
0.547182
0.547182
0.547182
0.547182
0.547182
0.547183
0.547183
0.547184
0.547185
0.547186
0.547187
0.547188
0.547189
0.54719
0.547191
0.547193
0.547194
0.547195
0.547196
0.547197
0.547198
0.547199
0.5472
0.5472
0.5472
0.5472
0.5472
0.547199
0.547198
0.547197
0.547195
0.547192
0.547189
0.547186
0.547183
0.547178
0.547174
0.547169
0.547164
0.547158
0.547152
0.547146
0.547111
0.547115
0.54712
0.547125
0.547129
0.547133
0.547137
0.54714
0.547143
0.547146
0.547148
0.54715
0.547152
0.547153
0.547155
0.547156
0.547156
0.547157
0.547157
0.547157
0.547156
0.547156
0.547156
0.547155
0.547154
0.547154
0.547153
0.547152
0.547151
0.54715
0.547149
0.547149
0.547148
0.547147
0.547147
0.547146
0.547146
0.547146
0.547145
0.547145
0.547145
0.547145
0.547146
0.547146
0.547146
0.547147
0.547147
0.547148
0.547149
0.547149
0.54715
0.547151
0.547152
0.547153
0.547154
0.547154
0.547155
0.547156
0.547156
0.547156
0.547157
0.547157
0.547157
0.547156
0.547156
0.547155
0.547153
0.547152
0.54715
0.547148
0.547146
0.547143
0.54714
0.547137
0.547133
0.547129
0.547125
0.54712
0.547115
0.547111
0.547077
0.54708
0.547084
0.547087
0.54709
0.547094
0.547096
0.547099
0.547102
0.547104
0.547106
0.547108
0.54711
0.547111
0.547112
0.547113
0.547114
0.547114
0.547115
0.547115
0.547115
0.547115
0.547115
0.547114
0.547114
0.547114
0.547113
0.547113
0.547112
0.547112
0.547111
0.547111
0.54711
0.54711
0.547109
0.547109
0.547109
0.547109
0.547108
0.547108
0.547108
0.547108
0.547109
0.547109
0.547109
0.547109
0.54711
0.54711
0.547111
0.547111
0.547112
0.547112
0.547113
0.547113
0.547114
0.547114
0.547114
0.547115
0.547115
0.547115
0.547115
0.547115
0.547114
0.547114
0.547113
0.547112
0.547111
0.54711
0.547108
0.547106
0.547104
0.547102
0.547099
0.547096
0.547094
0.54709
0.547087
0.547084
0.54708
0.547077
0.547042
0.547045
0.547048
0.54705
0.547053
0.547055
0.547058
0.54706
0.547062
0.547064
0.547066
0.547067
0.547069
0.54707
0.547071
0.547072
0.547073
0.547073
0.547074
0.547074
0.547074
0.547074
0.547074
0.547074
0.547074
0.547074
0.547074
0.547074
0.547073
0.547073
0.547073
0.547072
0.547072
0.547072
0.547072
0.547071
0.547071
0.547071
0.547071
0.547071
0.547071
0.547071
0.547071
0.547071
0.547071
0.547072
0.547072
0.547072
0.547072
0.547073
0.547073
0.547073
0.547074
0.547074
0.547074
0.547074
0.547074
0.547074
0.547074
0.547074
0.547074
0.547074
0.547073
0.547073
0.547072
0.547071
0.54707
0.547069
0.547067
0.547066
0.547064
0.547062
0.54706
0.547058
0.547055
0.547053
0.54705
0.547048
0.547045
0.547042
0.547008
0.54701
0.547012
0.547014
0.547016
0.547018
0.54702
0.547022
0.547023
0.547025
0.547026
0.547028
0.547029
0.54703
0.547031
0.547032
0.547032
0.547033
0.547034
0.547034
0.547034
0.547035
0.547035
0.547035
0.547035
0.547035
0.547035
0.547035
0.547035
0.547034
0.547034
0.547034
0.547034
0.547034
0.547034
0.547034
0.547034
0.547033
0.547033
0.547033
0.547033
0.547033
0.547033
0.547034
0.547034
0.547034
0.547034
0.547034
0.547034
0.547034
0.547034
0.547035
0.547035
0.547035
0.547035
0.547035
0.547035
0.547035
0.547035
0.547034
0.547034
0.547034
0.547033
0.547032
0.547032
0.547031
0.54703
0.547029
0.547028
0.547026
0.547025
0.547023
0.547022
0.54702
0.547018
0.547016
0.547014
0.547012
0.54701
0.547008
0.546973
0.546975
0.546976
0.546978
0.546979
0.546981
0.546982
0.546984
0.546985
0.546987
0.546988
0.546989
0.54699
0.546991
0.546992
0.546992
0.546993
0.546994
0.546994
0.546995
0.546995
0.546995
0.546996
0.546996
0.546996
0.546996
0.546996
0.546996
0.546996
0.546996
0.546996
0.546996
0.546996
0.546996
0.546996
0.546996
0.546996
0.546996
0.546996
0.546996
0.546996
0.546996
0.546996
0.546996
0.546996
0.546996
0.546996
0.546996
0.546996
0.546996
0.546996
0.546996
0.546996
0.546996
0.546996
0.546996
0.546996
0.546996
0.546995
0.546995
0.546995
0.546994
0.546994
0.546993
0.546992
0.546992
0.546991
0.54699
0.546989
0.546988
0.546987
0.546985
0.546984
0.546982
0.546981
0.546979
0.546978
0.546976
0.546975
0.546973
0.546938
0.54694
0.546941
0.546942
0.546943
0.546944
0.546946
0.546947
0.546948
0.546949
0.54695
0.546951
0.546952
0.546952
0.546953
0.546954
0.546954
0.546955
0.546955
0.546956
0.546956
0.546957
0.546957
0.546957
0.546957
0.546957
0.546958
0.546958
0.546958
0.546958
0.546958
0.546958
0.546958
0.546958
0.546958
0.546958
0.546958
0.546958
0.546958
0.546958
0.546958
0.546958
0.546958
0.546958
0.546958
0.546958
0.546958
0.546958
0.546958
0.546958
0.546958
0.546958
0.546958
0.546958
0.546957
0.546957
0.546957
0.546957
0.546957
0.546956
0.546956
0.546955
0.546955
0.546954
0.546954
0.546953
0.546952
0.546952
0.546951
0.54695
0.546949
0.546948
0.546947
0.546946
0.546944
0.546943
0.546942
0.546941
0.54694
0.546938
0.546903
0.546904
0.546905
0.546906
0.546907
0.546908
0.546909
0.54691
0.546911
0.546911
0.546912
0.546913
0.546914
0.546914
0.546915
0.546916
0.546916
0.546917
0.546917
0.546917
0.546918
0.546918
0.546918
0.546919
0.546919
0.546919
0.546919
0.546919
0.546919
0.54692
0.54692
0.54692
0.54692
0.54692
0.54692
0.54692
0.54692
0.54692
0.54692
0.54692
0.54692
0.54692
0.54692
0.54692
0.54692
0.54692
0.54692
0.54692
0.54692
0.54692
0.54692
0.546919
0.546919
0.546919
0.546919
0.546919
0.546919
0.546918
0.546918
0.546918
0.546917
0.546917
0.546917
0.546916
0.546916
0.546915
0.546914
0.546914
0.546913
0.546912
0.546911
0.546911
0.54691
0.546909
0.546908
0.546907
0.546906
0.546905
0.546904
0.546903
0.546868
0.546869
0.546869
0.54687
0.546871
0.546871
0.546872
0.546873
0.546874
0.546874
0.546875
0.546876
0.546876
0.546877
0.546877
0.546878
0.546878
0.546879
0.546879
0.546879
0.54688
0.54688
0.54688
0.546881
0.546881
0.546881
0.546881
0.546881
0.546881
0.546882
0.546882
0.546882
0.546882
0.546882
0.546882
0.546882
0.546882
0.546882
0.546882
0.546882
0.546882
0.546882
0.546882
0.546882
0.546882
0.546882
0.546882
0.546882
0.546882
0.546882
0.546882
0.546881
0.546881
0.546881
0.546881
0.546881
0.546881
0.54688
0.54688
0.54688
0.546879
0.546879
0.546879
0.546878
0.546878
0.546877
0.546877
0.546876
0.546876
0.546875
0.546874
0.546874
0.546873
0.546872
0.546871
0.546871
0.54687
0.546869
0.546869
0.546868
0.546833
0.546833
0.546834
0.546834
0.546835
0.546835
0.546836
0.546836
0.546837
0.546837
0.546838
0.546838
0.546839
0.546839
0.54684
0.54684
0.546841
0.546841
0.546841
0.546842
0.546842
0.546842
0.546842
0.546843
0.546843
0.546843
0.546843
0.546843
0.546844
0.546844
0.546844
0.546844
0.546844
0.546844
0.546844
0.546844
0.546844
0.546844
0.546844
0.546844
0.546844
0.546844
0.546844
0.546844
0.546844
0.546844
0.546844
0.546844
0.546844
0.546844
0.546844
0.546844
0.546843
0.546843
0.546843
0.546843
0.546843
0.546842
0.546842
0.546842
0.546842
0.546841
0.546841
0.546841
0.54684
0.54684
0.546839
0.546839
0.546838
0.546838
0.546837
0.546837
0.546836
0.546836
0.546835
0.546835
0.546834
0.546834
0.546833
0.546833
0.546797
0.546797
0.546797
0.546798
0.546798
0.546799
0.546799
0.546799
0.5468
0.5468
0.546801
0.546801
0.546802
0.546802
0.546802
0.546803
0.546803
0.546803
0.546804
0.546804
0.546804
0.546804
0.546805
0.546805
0.546805
0.546805
0.546805
0.546806
0.546806
0.546806
0.546806
0.546806
0.546806
0.546806
0.546806
0.546806
0.546806
0.546806
0.546806
0.546806
0.546806
0.546806
0.546806
0.546806
0.546806
0.546806
0.546806
0.546806
0.546806
0.546806
0.546806
0.546806
0.546806
0.546805
0.546805
0.546805
0.546805
0.546805
0.546804
0.546804
0.546804
0.546804
0.546803
0.546803
0.546803
0.546802
0.546802
0.546802
0.546801
0.546801
0.5468
0.5468
0.546799
0.546799
0.546799
0.546798
0.546798
0.546797
0.546797
0.546797
0.546761
0.546761
0.546761
0.546762
0.546762
0.546762
0.546762
0.546763
0.546763
0.546763
0.546764
0.546764
0.546764
0.546765
0.546765
0.546765
0.546766
0.546766
0.546766
0.546766
0.546767
0.546767
0.546767
0.546767
0.546767
0.546768
0.546768
0.546768
0.546768
0.546768
0.546768
0.546768
0.546768
0.546769
0.546769
0.546769
0.546769
0.546769
0.546769
0.546769
0.546769
0.546769
0.546769
0.546769
0.546769
0.546769
0.546769
0.546768
0.546768
0.546768
0.546768
0.546768
0.546768
0.546768
0.546768
0.546767
0.546767
0.546767
0.546767
0.546767
0.546766
0.546766
0.546766
0.546766
0.546765
0.546765
0.546765
0.546764
0.546764
0.546764
0.546763
0.546763
0.546763
0.546762
0.546762
0.546762
0.546762
0.546761
0.546761
0.546761
0.546725
0.546725
0.546725
0.546725
0.546725
0.546726
0.546726
0.546726
0.546726
0.546727
0.546727
0.546727
0.546727
0.546728
0.546728
0.546728
0.546728
0.546729
0.546729
0.546729
0.546729
0.546729
0.54673
0.54673
0.54673
0.54673
0.54673
0.54673
0.54673
0.546731
0.546731
0.546731
0.546731
0.546731
0.546731
0.546731
0.546731
0.546731
0.546731
0.546731
0.546731
0.546731
0.546731
0.546731
0.546731
0.546731
0.546731
0.546731
0.546731
0.546731
0.546731
0.54673
0.54673
0.54673
0.54673
0.54673
0.54673
0.54673
0.546729
0.546729
0.546729
0.546729
0.546729
0.546728
0.546728
0.546728
0.546728
0.546727
0.546727
0.546727
0.546727
0.546726
0.546726
0.546726
0.546726
0.546725
0.546725
0.546725
0.546725
0.546725
0.546688
0.546688
0.546689
0.546689
0.546689
0.546689
0.546689
0.546689
0.54669
0.54669
0.54669
0.54669
0.54669
0.546691
0.546691
0.546691
0.546691
0.546691
0.546692
0.546692
0.546692
0.546692
0.546692
0.546692
0.546692
0.546693
0.546693
0.546693
0.546693
0.546693
0.546693
0.546693
0.546693
0.546693
0.546693
0.546693
0.546694
0.546694
0.546694
0.546694
0.546694
0.546694
0.546694
0.546694
0.546693
0.546693
0.546693
0.546693
0.546693
0.546693
0.546693
0.546693
0.546693
0.546693
0.546693
0.546692
0.546692
0.546692
0.546692
0.546692
0.546692
0.546692
0.546691
0.546691
0.546691
0.546691
0.546691
0.54669
0.54669
0.54669
0.54669
0.54669
0.546689
0.546689
0.546689
0.546689
0.546689
0.546689
0.546688
0.546688
0.546652
0.546652
0.546652
0.546652
0.546652
0.546652
0.546652
0.546653
0.546653
0.546653
0.546653
0.546653
0.546653
0.546653
0.546654
0.546654
0.546654
0.546654
0.546654
0.546654
0.546655
0.546655
0.546655
0.546655
0.546655
0.546655
0.546655
0.546655
0.546656
0.546656
0.546656
0.546656
0.546656
0.546656
0.546656
0.546656
0.546656
0.546656
0.546656
0.546656
0.546656
0.546656
0.546656
0.546656
0.546656
0.546656
0.546656
0.546656
0.546656
0.546656
0.546656
0.546656
0.546655
0.546655
0.546655
0.546655
0.546655
0.546655
0.546655
0.546655
0.546654
0.546654
0.546654
0.546654
0.546654
0.546654
0.546653
0.546653
0.546653
0.546653
0.546653
0.546653
0.546653
0.546652
0.546652
0.546652
0.546652
0.546652
0.546652
0.546652
0.546615
0.546615
0.546615
0.546615
0.546615
0.546615
0.546616
0.546616
0.546616
0.546616
0.546616
0.546616
0.546616
0.546616
0.546617
0.546617
0.546617
0.546617
0.546617
0.546617
0.546617
0.546617
0.546618
0.546618
0.546618
0.546618
0.546618
0.546618
0.546618
0.546618
0.546618
0.546618
0.546618
0.546618
0.546618
0.546619
0.546619
0.546619
0.546619
0.546619
0.546619
0.546619
0.546619
0.546619
0.546619
0.546618
0.546618
0.546618
0.546618
0.546618
0.546618
0.546618
0.546618
0.546618
0.546618
0.546618
0.546618
0.546618
0.546617
0.546617
0.546617
0.546617
0.546617
0.546617
0.546617
0.546617
0.546616
0.546616
0.546616
0.546616
0.546616
0.546616
0.546616
0.546616
0.546615
0.546615
0.546615
0.546615
0.546615
0.546615
0.546579
0.546579
0.546579
0.546579
0.546579
0.546579
0.546579
0.546579
0.546579
0.546579
0.546579
0.546579
0.546579
0.546579
0.546579
0.54658
0.54658
0.54658
0.54658
0.54658
0.54658
0.54658
0.54658
0.54658
0.54658
0.546581
0.546581
0.546581
0.546581
0.546581
0.546581
0.546581
0.546581
0.546581
0.546581
0.546581
0.546581
0.546581
0.546581
0.546581
0.546581
0.546581
0.546581
0.546581
0.546581
0.546581
0.546581
0.546581
0.546581
0.546581
0.546581
0.546581
0.546581
0.546581
0.546581
0.54658
0.54658
0.54658
0.54658
0.54658
0.54658
0.54658
0.54658
0.54658
0.54658
0.546579
0.546579
0.546579
0.546579
0.546579
0.546579
0.546579
0.546579
0.546579
0.546579
0.546579
0.546579
0.546579
0.546579
0.546579
0.546542
0.546542
0.546542
0.546542
0.546542
0.546542
0.546542
0.546542
0.546542
0.546542
0.546542
0.546542
0.546542
0.546542
0.546542
0.546542
0.546543
0.546543
0.546543
0.546543
0.546543
0.546543
0.546543
0.546543
0.546543
0.546543
0.546543
0.546543
0.546543
0.546543
0.546544
0.546544
0.546544
0.546544
0.546544
0.546544
0.546544
0.546544
0.546544
0.546544
0.546544
0.546544
0.546544
0.546544
0.546544
0.546544
0.546544
0.546544
0.546544
0.546544
0.546543
0.546543
0.546543
0.546543
0.546543
0.546543
0.546543
0.546543
0.546543
0.546543
0.546543
0.546543
0.546543
0.546543
0.546542
0.546542
0.546542
0.546542
0.546542
0.546542
0.546542
0.546542
0.546542
0.546542
0.546542
0.546542
0.546542
0.546542
0.546542
0.546542
0.546505
0.546505
0.546505
0.546505
0.546505
0.546505
0.546505
0.546505
0.546505
0.546505
0.546505
0.546505
0.546505
0.546505
0.546505
0.546505
0.546505
0.546505
0.546506
0.546506
0.546506
0.546506
0.546506
0.546506
0.546506
0.546506
0.546506
0.546506
0.546506
0.546506
0.546506
0.546506
0.546506
0.546506
0.546506
0.546506
0.546506
0.546506
0.546506
0.546506
0.546506
0.546506
0.546506
0.546506
0.546506
0.546506
0.546506
0.546506
0.546506
0.546506
0.546506
0.546506
0.546506
0.546506
0.546506
0.546506
0.546506
0.546506
0.546506
0.546506
0.546506
0.546506
0.546505
0.546505
0.546505
0.546505
0.546505
0.546505
0.546505
0.546505
0.546505
0.546505
0.546505
0.546505
0.546505
0.546505
0.546505
0.546505
0.546505
0.546505
0.546468
0.546468
0.546468
0.546468
0.546468
0.546468
0.546468
0.546468
0.546468
0.546468
0.546468
0.546468
0.546468
0.546468
0.546468
0.546468
0.546468
0.546468
0.546468
0.546468
0.546468
0.546469
0.546469
0.546469
0.546469
0.546469
0.546469
0.546469
0.546469
0.546469
0.546469
0.546469
0.546469
0.546469
0.546469
0.546469
0.546469
0.546469
0.546469
0.546469
0.546469
0.546469
0.546469
0.546469
0.546469
0.546469
0.546469
0.546469
0.546469
0.546469
0.546469
0.546469
0.546469
0.546469
0.546469
0.546469
0.546469
0.546469
0.546469
0.546468
0.546468
0.546468
0.546468
0.546468
0.546468
0.546468
0.546468
0.546468
0.546468
0.546468
0.546468
0.546468
0.546468
0.546468
0.546468
0.546468
0.546468
0.546468
0.546468
0.546468
0.546431
0.546431
0.546431
0.546431
0.546431
0.546431
0.546431
0.546431
0.546431
0.546431
0.546431
0.546431
0.546431
0.546431
0.546431
0.546431
0.546431
0.546431
0.546431
0.546431
0.546431
0.546431
0.546431
0.546431
0.546431
0.546431
0.546432
0.546432
0.546432
0.546432
0.546432
0.546432
0.546432
0.546432
0.546432
0.546432
0.546432
0.546432
0.546432
0.546432
0.546432
0.546432
0.546432
0.546432
0.546432
0.546432
0.546432
0.546432
0.546432
0.546432
0.546432
0.546432
0.546432
0.546432
0.546431
0.546431
0.546431
0.546431
0.546431
0.546431
0.546431
0.546431
0.546431
0.546431
0.546431
0.546431
0.546431
0.546431
0.546431
0.546431
0.546431
0.546431
0.546431
0.546431
0.546431
0.546431
0.546431
0.546431
0.546431
0.546431
0.546394
0.546394
0.546394
0.546394
0.546394
0.546394
0.546394
0.546394
0.546394
0.546394
0.546394
0.546394
0.546394
0.546394
0.546394
0.546394
0.546394
0.546394
0.546394
0.546394
0.546394
0.546394
0.546394
0.546394
0.546394
0.546394
0.546394
0.546394
0.546394
0.546394
0.546394
0.546394
0.546394
0.546394
0.546394
0.546394
0.546395
0.546395
0.546395
0.546395
0.546395
0.546395
0.546395
0.546395
0.546394
0.546394
0.546394
0.546394
0.546394
0.546394
0.546394
0.546394
0.546394
0.546394
0.546394
0.546394
0.546394
0.546394
0.546394
0.546394
0.546394
0.546394
0.546394
0.546394
0.546394
0.546394
0.546394
0.546394
0.546394
0.546394
0.546394
0.546394
0.546394
0.546394
0.546394
0.546394
0.546394
0.546394
0.546394
0.546394
0.546357
0.546357
0.546357
0.546357
0.546357
0.546357
0.546357
0.546357
0.546357
0.546357
0.546357
0.546357
0.546357
0.546357
0.546357
0.546357
0.546357
0.546357
0.546357
0.546357
0.546357
0.546357
0.546357
0.546357
0.546357
0.546357
0.546357
0.546357
0.546357
0.546357
0.546357
0.546357
0.546357
0.546357
0.546357
0.546357
0.546357
0.546357
0.546357
0.546357
0.546357
0.546357
0.546357
0.546357
0.546357
0.546357
0.546357
0.546357
0.546357
0.546357
0.546357
0.546357
0.546357
0.546357
0.546357
0.546357
0.546357
0.546357
0.546357
0.546357
0.546357
0.546357
0.546357
0.546357
0.546357
0.546357
0.546357
0.546357
0.546357
0.546357
0.546357
0.546357
0.546357
0.546357
0.546357
0.546357
0.546357
0.546357
0.546357
0.546357
0.54632
0.54632
0.54632
0.54632
0.54632
0.54632
0.54632
0.54632
0.54632
0.54632
0.54632
0.54632
0.54632
0.54632
0.54632
0.54632
0.54632
0.54632
0.54632
0.54632
0.54632
0.54632
0.54632
0.54632
0.54632
0.54632
0.54632
0.54632
0.54632
0.54632
0.54632
0.54632
0.54632
0.54632
0.54632
0.54632
0.54632
0.54632
0.54632
0.54632
0.54632
0.54632
0.54632
0.54632
0.54632
0.54632
0.54632
0.54632
0.54632
0.54632
0.54632
0.54632
0.54632
0.54632
0.54632
0.54632
0.54632
0.54632
0.54632
0.54632
0.54632
0.54632
0.54632
0.54632
0.54632
0.54632
0.54632
0.54632
0.54632
0.54632
0.54632
0.54632
0.54632
0.54632
0.54632
0.54632
0.54632
0.54632
0.54632
0.54632
0.546282
0.546282
0.546282
0.546282
0.546282
0.546282
0.546282
0.546282
0.546282
0.546282
0.546282
0.546282
0.546282
0.546282
0.546282
0.546282
0.546282
0.546283
0.546283
0.546283
0.546283
0.546283
0.546283
0.546283
0.546283
0.546283
0.546283
0.546283
0.546283
0.546283
0.546283
0.546283
0.546283
0.546283
0.546283
0.546283
0.546283
0.546283
0.546283
0.546283
0.546283
0.546283
0.546283
0.546283
0.546283
0.546283
0.546283
0.546283
0.546283
0.546283
0.546283
0.546283
0.546283
0.546283
0.546283
0.546283
0.546283
0.546283
0.546283
0.546283
0.546283
0.546283
0.546283
0.546282
0.546282
0.546282
0.546282
0.546282
0.546282
0.546282
0.546282
0.546282
0.546282
0.546282
0.546282
0.546282
0.546282
0.546282
0.546282
0.546282
0.546245
0.546245
0.546245
0.546245
0.546245
0.546245
0.546245
0.546245
0.546245
0.546245
0.546245
0.546245
0.546245
0.546245
0.546245
0.546245
0.546245
0.546245
0.546245
0.546245
0.546245
0.546245
0.546245
0.546245
0.546245
0.546245
0.546245
0.546245
0.546245
0.546245
0.546245
0.546245
0.546246
0.546246
0.546246
0.546246
0.546246
0.546246
0.546246
0.546246
0.546246
0.546246
0.546246
0.546246
0.546246
0.546246
0.546246
0.546246
0.546245
0.546245
0.546245
0.546245
0.546245
0.546245
0.546245
0.546245
0.546245
0.546245
0.546245
0.546245
0.546245
0.546245
0.546245
0.546245
0.546245
0.546245
0.546245
0.546245
0.546245
0.546245
0.546245
0.546245
0.546245
0.546245
0.546245
0.546245
0.546245
0.546245
0.546245
0.546245
0.546208
0.546208
0.546208
0.546208
0.546208
0.546208
0.546208
0.546208
0.546208
0.546208
0.546208
0.546208
0.546208
0.546208
0.546208
0.546208
0.546208
0.546208
0.546208
0.546208
0.546208
0.546208
0.546208
0.546208
0.546208
0.546208
0.546208
0.546208
0.546208
0.546208
0.546208
0.546208
0.546208
0.546208
0.546208
0.546208
0.546208
0.546208
0.546208
0.546208
0.546208
0.546208
0.546208
0.546208
0.546208
0.546208
0.546208
0.546208
0.546208
0.546208
0.546208
0.546208
0.546208
0.546208
0.546208
0.546208
0.546208
0.546208
0.546208
0.546208
0.546208
0.546208
0.546208
0.546208
0.546208
0.546208
0.546208
0.546208
0.546208
0.546208
0.546208
0.546208
0.546208
0.546208
0.546208
0.546208
0.546208
0.546208
0.546208
0.546208
0.546171
0.546171
0.546171
0.546171
0.546171
0.546171
0.546171
0.546171
0.546171
0.546171
0.546171
0.546171
0.546171
0.546171
0.546171
0.546171
0.546171