/*--------------------------------*- C++ -*----------------------------------*\
  =========                 |
  \\      /  F ield         | OpenFOAM: The Open Source CFD Toolbox
   \\    /   O peration     | Website:  https://openfoam.org
    \\  /    A nd           | Version:  11
     \\/     M anipulation  |
\*---------------------------------------------------------------------------*/
FoamFile
{
    format      ascii;
    class       volScalarField;
    location    "5";
    object      C;
}
// * * * * * * * * * * * * * * * * * * * * * * * * * * * * * * * * * * * * * //

dimensions      [0 0 0 1 0 0 0];

internalField   nonuniform List<scalar> 
332800
(
-5.39429e-312
-6.13819e-312
-6.03208e-312
-3.32359e-312
-3.20597e-312
-5.0107e-312
-4.31386e-312
-4.1644e-312
-4.29036e-312
-4.13877e-312
-1.48719e-312
-1.80078e-312
4.33239e-314
-6.81937e-313
9.19285e-313
4.18826e-313
1.96637e-313
-4.04299e-314
4.20384e-313
1.21539e-312
5.52339e-313
-4.84917e-313
4.57839e-313
-1.00919e-313
1.40024e-314
-3.96379e-313
-2.42422e-313
-5.30423e-313
-2.73354e-313
-6.87867e-313
6.62095e-313
-5.73692e-313
-5.80819e-313
-1.23234e-312
-1.09391e-312
-6.81375e-313
-6.78301e-313
-2.1113e-313
1.33965e-313
5.97329e-314
-1.07483e-312
-6.00588e-314
-8.61199e-313
3.58918e-313
-1.13187e-312
1.15327e-312
2.36412e-313
1.37003e-312
1.52214e-312
6.22914e-313
-1.08514e-312
7.39812e-313
-3.94251e-313
-4.89679e-313
3.44154e-313
2.21118e-313
-8.54235e-314
-2.12791e-313
-1.89099e-312
-2.22147e-312
-8.63343e-313
-4.64592e-313
-2.10195e-313
1.4627e-313
-4.69291e-313
-2.5935e-312
-1.07129e-312
-9.265e-313
-3.20326e-312
1.91567e-312
5.60404e-314
2.2474e-312
7.9864e-313
5.49871e-313
1.48425e-312
2.47264e-312
2.96957e-312
-1.16799e-312
6.6098e-314
-3.29554e-312
-1.50266e-311
-1.30107e-311
-6.22657e-312
-5.56519e-312
-8.86182e-312
-9.35685e-312
-8.88081e-312
-8.79646e-312
-5.44231e-312
-6.45061e-312
-5.19445e-312
-6.16668e-312
-2.50055e-312
-9.14111e-313
-1.14477e-312
-8.73347e-313
-9.9856e-313
-1.15051e-312
-1.60004e-314
7.27704e-313
5.9125e-313
-5.67054e-314
7.97979e-314
-2.25058e-313
-2.97106e-313
1.86633e-312
1.19384e-312
8.31376e-313
9.32498e-315
-3.6308e-313
-4.8662e-313
-1.51764e-312
-2.61154e-312
-3.26973e-313
-8.91271e-313
-2.10354e-312
1.10252e-313
-1.85848e-313
-3.76401e-313
-1.32664e-312
-2.04415e-312
2.90605e-313
5.99208e-313
-6.54257e-313
-4.1808e-313
1.04984e-312
2.8333e-313
-1.05043e-313
2.46011e-313
4.56062e-313
1.24772e-313
8.30526e-313
-2.76247e-313
-1.08848e-312
1.80403e-312
9.9096e-313
9.51316e-313
3.19047e-313
-8.99886e-313
-1.74994e-312
-4.88071e-313
-2.86509e-312
-6.12277e-313
-4.58853e-313
-2.69148e-313
4.14044e-313
-9.81091e-313
-1.38916e-312
-5.23165e-312
-2.70871e-312
-2.22634e-312
-1.14087e-312
2.89868e-312
9.94304e-313
-1.88246e-312
2.66003e-313
2.06584e-312
1.03103e-312
4.80083e-312
-2.6288e-312
3.41314e-312
-8.69408e-314
-2.88171e-313
-6.83938e-312
-4.63264e-312
-4.80779e-312
-3.76718e-312
-3.12229e-312
-2.81683e-312
-6.82782e-312
-6.7065e-312
-6.26634e-312
-1.57745e-312
-8.07067e-313
-9.32522e-313
1.13013e-312
5.20212e-313
-1.18901e-314
1.22668e-312
-7.86235e-313
6.65818e-313
1.22568e-312
5.11933e-313
-8.44469e-314
-3.25915e-313
1.54834e-312
1.58362e-312
1.12803e-312
-7.06481e-314
-1.07824e-312
5.43757e-313
-1.46706e-312
-3.27415e-312
1.07677e-312
-7.02326e-313
-5.715e-313
1.79239e-312
1.09295e-312
4.02355e-313
-8.22316e-313
-1.94685e-312
1.66138e-313
1.16641e-312
-5.11854e-313
-1.61127e-313
1.70015e-312
-7.27166e-313
7.70186e-313
5.4264e-313
2.51585e-313
2.33566e-312
1.86409e-312
1.50694e-312
-9.50747e-314
1.76591e-312
6.69043e-313
-1.01801e-312
-6.19692e-313
-8.6667e-313
-9.4009e-313
7.60223e-313
-2.29895e-312
-3.36633e-312
-2.96848e-313
-9.7156e-313
5.79594e-313
4.93255e-313
-8.40541e-313
-2.2947e-312
-1.31911e-312
-1.15592e-312
8.62203e-313
2.43655e-312
5.28145e-312
1.27134e-312
5.02185e-312
-2.19148e-312
-2.85806e-312
1.19681e-312
2.26966e-313
7.71516e-312
2.32404e-312
-3.48267e-313
-3.22093e-312
-6.79899e-312
-6.02988e-312
-6.20846e-312
-3.67883e-312
1.57887e-313
-2.60068e-312
-4.23724e-312
-9.10958e-313
-1.34522e-312
-1.28062e-312
-5.55485e-313
2.97434e-313
-8.91755e-314
2.2131e-312
1.42931e-312
-9.67414e-313
-1.12334e-313
1.01109e-313
4.90094e-313
1.14012e-312
3.0899e-313
8.42065e-313
1.70113e-312
1.11211e-312
3.1221e-313
-7.64029e-313
9.89643e-313
-2.71027e-312
-2.56889e-312
9.51594e-313
-5.34566e-313
1.23192e-312
2.19624e-312
9.79351e-313
6.04298e-313
-3.34364e-313
-1.4243e-312
1.29155e-312
1.23422e-312
-6.31059e-313
-8.95168e-313
1.88304e-312
-1.2848e-312
5.28627e-313
-2.60302e-313
2.57729e-313
1.14396e-312
1.2267e-312
2.23581e-312
2.36816e-313
2.04127e-312
1.25826e-312
-5.40182e-313
5.43806e-314
-1.91275e-312
-1.88326e-312
-1.44061e-312
-1.80677e-312
-3.36647e-312
1.2398e-312
9.91651e-313
-7.16691e-313
3.98117e-313
1.27127e-312
5.7618e-313
-7.39128e-314
1.17498e-312
3.37683e-312
4.37136e-312
2.99853e-312
2.91665e-312
6.49188e-312
4.27619e-313
-1.10121e-312
1.64341e-313
2.49429e-312
5.68629e-312
2.9047e-312
6.60771e-313
-4.43923e-312
-1.08815e-311
-1.34717e-311
-1.35689e-311
-7.0297e-312
-3.50944e-312
-2.41346e-312
-2.84018e-312
-1.63384e-312
-2.20471e-312
-1.55279e-312
5.37212e-313
8.64074e-313
3.87466e-313
2.93085e-312
1.71618e-312
3.78725e-313
9.74241e-313
-5.27002e-313
-1.94624e-314
8.03173e-314
-5.49162e-313
9.12027e-313
4.05178e-312
1.08109e-313
3.02675e-313
-2.11598e-312
5.98258e-313
-2.55168e-312
-1.91318e-312
1.57752e-312
-1.2637e-312
1.93319e-312
1.39084e-312
3.50442e-313
-8.09611e-313
-3.33398e-313
-1.65641e-312
1.69199e-312
1.80067e-312
-5.71452e-313
-2.69433e-312
5.81196e-313
-2.15072e-312
-1.01537e-312
-1.59358e-312
-1.03586e-312
-1.69833e-313
-1.1154e-312
2.13791e-312
4.62932e-313
1.81398e-312
8.01513e-314
1.14008e-312
-1.4405e-312
-3.02529e-312
-2.55724e-312
-2.81718e-312
-1.89836e-312
-2.56659e-312
3.10873e-312
2.21949e-312
-1.53715e-312
2.10983e-312
2.89687e-312
4.08985e-312
-7.21092e-313
-9.84049e-313
-1.11537e-312
-3.28054e-312
-2.98229e-312
-8.13154e-313
1.67112e-312
1.03426e-312
4.67602e-312
2.91151e-312
8.92729e-312
-6.00276e-312
-6.74953e-312
-6.75172e-312
-1.36741e-311
-1.44228e-311
-1.3959e-311
-1.17843e-311
-7.81685e-312
-5.58558e-312
-2.93942e-312
-5.65949e-312
-6.39714e-312
-3.06733e-312
-2.82435e-312
1.64678e-312
2.68662e-312
1.88909e-312
3.09939e-312
-4.44599e-313
-3.15926e-313
4.97465e-313
-1.74608e-312
4.41781e-313
5.81788e-313
-1.22552e-313
-4.26201e-313
2.22573e-312
8.70652e-314
1.16856e-312
-1.99449e-312
1.49826e-312
-1.88926e-312
-1.71965e-312
1.80523e-312
-1.25728e-312
3.29131e-312
2.37164e-312
2.39534e-312
5.55062e-313
-2.51509e-312
-2.34463e-312
-2.60524e-314
8.71018e-313
-1.00454e-312
-2.2765e-312
-6.27245e-313
-8.16998e-313
-1.79538e-312
1.74349e-313
-7.75696e-314
-5.69086e-313
-1.04111e-312
2.55076e-312
1.28413e-312
3.11502e-312
1.2335e-312
1.73689e-314
-1.46999e-312
-2.55665e-312
-4.18258e-312
-1.35564e-312
-3.4087e-312
-1.36734e-312
2.7358e-312
1.34231e-312
1.4533e-312
2.04101e-312
4.0359e-312
5.0614e-312
1.66611e-312
-4.6112e-313
-3.36243e-314
-2.46039e-312
5.0552e-312
3.28016e-312
6.2861e-312
3.21496e-312
6.89841e-312
4.35181e-312
5.93385e-312
-5.08955e-312
-5.07303e-312
-6.06372e-312
-1.26767e-311
-1.35033e-311
-1.20022e-311
-1.34381e-311
-8.45698e-312
-7.79533e-312
-3.88975e-312
-3.43512e-312
-4.39794e-312
-1.93138e-312
-2.09317e-312
4.00887e-312
4.72412e-312
1.18925e-312
2.38639e-312
-1.61834e-312
-1.92311e-313
1.64281e-312
1.01409e-312
8.87469e-313
5.10109e-313
7.97261e-313
-1.33749e-312
-4.52268e-313
-1.66893e-313
3.49873e-313
-2.05567e-312
1.01335e-312
-3.36e-312
-2.56336e-312
2.52227e-312
-2.22611e-312
3.15282e-312
3.36519e-312
2.38636e-312
1.36948e-312
-3.01887e-312
-3.28229e-312
-1.21868e-312
7.00347e-314
-2.19531e-312
-2.73061e-312
-9.09332e-313
-3.9406e-313
2.20846e-313
6.08234e-313
2.54729e-312
-1.4836e-312
-8.8713e-313
2.91784e-312
8.42013e-313
2.44924e-312
-1.22611e-312
-3.1117e-313
-8.66847e-313
-1.27301e-312
-1.34481e-312
1.94363e-312
-1.25616e-312
3.88788e-313
2.84222e-312
1.37078e-312
2.46085e-312
1.52602e-312
1.39072e-312
1.12887e-312
2.72267e-314
2.67344e-312
4.61744e-312
2.60537e-312
4.84008e-312
8.84622e-312
2.86612e-312
3.15397e-312
8.18455e-312
3.52603e-312
2.88452e-312
-1.37922e-312
-4.42396e-312
-5.10705e-312
-6.16007e-312
-1.09245e-311
-1.35794e-311
-1.18124e-311
-7.61672e-312
-3.03831e-312
-2.27852e-312
-1.427e-312
9.00976e-313
-3.16191e-313
-8.50739e-313
3.67681e-312
4.50468e-312
-2.49837e-312
5.83436e-313
-2.63347e-312
-2.64077e-312
2.05931e-312
1.31161e-312
2.17462e-312
2.66987e-312
1.30685e-312
-9.81369e-313
-1.58038e-313
-1.3928e-312
-7.30722e-313
-2.99329e-312
2.74638e-313
-2.41915e-312
-3.13691e-312
1.89147e-313
-7.88374e-313
4.36138e-312
2.6252e-312
1.82569e-312
1.49803e-312
-3.59735e-312
-3.17652e-312
-9.23269e-313
-2.10376e-312
-1.62905e-312
-2.48554e-312
-4.18086e-313
-4.29383e-313
4.83991e-313
-5.02261e-313
3.27375e-312
-2.09118e-312
-1.02918e-312
1.91281e-312
2.80872e-313
2.15723e-312
-1.04439e-312
-6.00706e-313
-9.00843e-313
-2.70489e-312
-2.36426e-312
2.63013e-312
6.28495e-313
-9.89713e-313
2.80811e-312
1.42594e-312
3.25006e-313
-8.34752e-313
2.02351e-313
-3.10753e-312
-2.72035e-312
-1.79649e-313
3.16428e-312
5.0169e-312
5.89776e-312
8.89434e-312
4.96065e-312
1.7462e-312
1.04681e-311
5.36208e-312
3.21985e-312
6.27996e-312
-7.04138e-312
-9.34276e-312
-9.19175e-312
-1.24314e-311
-1.39772e-311
-1.27138e-311
-7.74781e-312
2.0499e-312
4.19017e-313
-1.96762e-312
-1.26128e-312
-6.30957e-313
-1.27279e-312
-3.46305e-313
1.61987e-312
-1.93739e-312
-2.4917e-312
-1.32522e-312
-2.11708e-312
2.41048e-312
1.10258e-312
2.76934e-312
3.56737e-312
9.82925e-313
2.19012e-313
7.56237e-313
6.04818e-313
1.86274e-312
-1.64732e-312
2.20391e-313
-3.77794e-312
-2.91131e-312
-4.19144e-313
6.96137e-313
4.81175e-312
3.09453e-312
1.17659e-312
2.18134e-313
-3.53509e-312
-2.36118e-312
-6.26473e-313
-3.17065e-313
7.20071e-313
-1.36539e-312
1.44375e-312
-1.06715e-312
-8.92393e-313
-5.28573e-313
2.48541e-312
-2.94505e-312
9.14631e-313
1.4499e-312
1.39564e-312
2.10474e-312
-1.5079e-312
-2.2067e-312
-3.77248e-312
-6.19016e-312
-6.05273e-312
-7.82013e-313
-1.01509e-312
8.1462e-313
3.83801e-313
2.67986e-312
9.94048e-313
6.34768e-313
2.7185e-313
2.72005e-313
-3.63007e-312
-1.72286e-312
-1.00246e-312
2.34896e-312
8.00181e-312
1.25558e-311
1.17673e-311
7.16361e-312
1.49589e-311
5.66061e-312
8.9796e-312
3.5961e-312
-1.5526e-313
-6.50584e-312
-9.54794e-312
-1.38022e-311
-1.58833e-311
-1.39464e-311
-1.38199e-311
-2.49188e-312
-3.70129e-312
-1.09727e-312
-3.25187e-312
-3.88906e-313
1.91249e-312
9.53655e-314
8.83193e-313
-1.49563e-312
-1.36438e-312
-2.01656e-312
-2.69559e-312
6.32562e-313
4.08952e-312
3.54899e-312
3.53988e-312
3.65044e-312
1.13622e-312
1.78253e-312
8.24429e-315
1.5672e-312
-2.30847e-312
9.76708e-313
-2.93736e-312
-3.90692e-312
9.69187e-314
1.24652e-313
4.38782e-312
4.59395e-312
1.27247e-313
-1.06077e-312
-3.49833e-312
-3.32721e-312
-2.36687e-312
-5.08813e-313
-1.87316e-312
-9.85525e-313
2.07812e-312
-3.43761e-313
-3.11431e-312
5.44049e-313
1.91812e-312
-2.3007e-312
1.21403e-314
2.06198e-312
-1.53299e-313
1.32212e-312
-2.36733e-312
-4.62568e-312
-4.87641e-312
-5.72555e-312
-5.45401e-312
-1.36825e-312
-2.76572e-312
7.90429e-313
1.27781e-312
2.44293e-312
2.57053e-312
1.82464e-312
-9.60458e-313
1.12413e-312
-1.80561e-312
6.91817e-313
1.90343e-312
1.51813e-312
5.11791e-312
1.1696e-311
1.36912e-311
1.50711e-311
2.15159e-311
2.30058e-311
2.20914e-311
3.40288e-312
-1.54415e-313
-3.61336e-314
-1.86539e-312
-5.7367e-312
-9.02207e-312
-1.08668e-311
-1.68584e-311
-5.72894e-312
-5.49489e-312
-3.9471e-312
-5.53259e-312
-2.02776e-313
1.98763e-312
1.03518e-312
6.28357e-313
-3.57764e-312
-4.75551e-312
-3.59226e-312
-2.86387e-312
-3.05751e-312
2.75515e-312
5.03419e-312
3.92171e-312
4.31569e-312
7.62694e-313
1.91835e-312
-1.10083e-312
3.14357e-312
4.4665e-313
1.19528e-312
-6.89154e-313
-4.55239e-312
2.96633e-313
-3.63758e-313
4.2548e-312
3.12552e-312
1.57455e-312
-2.49664e-313
-5.20384e-312
-2.56728e-312
-1.20305e-312
-1.6907e-312
-3.32635e-312
-6.02091e-313
4.52596e-313
1.21374e-312
-3.00017e-312
5.01232e-313
1.43845e-312
-4.63666e-312
-1.86234e-312
3.50561e-313
-1.16829e-312
4.30934e-313
-2.65702e-312
-5.11283e-312
-4.45157e-312
-4.80263e-312
-5.42662e-312
-8.41036e-313
-4.59398e-312
-8.90474e-313
-3.71089e-313
8.41115e-313
4.50366e-312
-3.21271e-313
-1.69486e-312
1.25149e-312
-1.49971e-312
1.02468e-312
1.29921e-312
1.14242e-312
2.4405e-312
3.3064e-312
6.79531e-312
8.20343e-312
1.01603e-311
1.22107e-311
1.23931e-311
1.08128e-311
8.46974e-312
2.41777e-312
-2.88888e-312
-7.3061e-312
-9.17605e-312
-1.44421e-311
-1.64232e-311
-5.92779e-312
-9.95951e-312
-4.92405e-312
-5.55545e-312
-2.38771e-312
-1.44242e-312
-9.15752e-313
-1.85832e-312
-3.24282e-312
-4.13364e-312
-4.33007e-312
-3.59916e-312
-3.27746e-312
5.43912e-313
2.73933e-312
3.98137e-312
2.31129e-312
7.87411e-313
2.776e-312
8.94176e-313
4.91664e-312
1.36707e-312
2.9709e-312
-1.4301e-312
-3.92574e-312
-2.65104e-313
1.67136e-312
4.33915e-312
1.77846e-312
1.94887e-312
-1.16825e-312
-5.38691e-312
-2.75592e-312
2.60635e-313
-3.22659e-312
-3.38691e-312
-2.33597e-312
-9.97543e-313
1.25634e-312
-1.07374e-312
-2.16737e-313
2.40335e-312
-3.13306e-312
-6.43311e-313
4.99565e-313
-2.12676e-312
1.05832e-312
-5.14749e-312
-6.38661e-312
-7.2702e-312
-5.34922e-312
-6.7882e-312
-3.52057e-312
-5.53614e-312
-2.05534e-312
-1.97907e-312
-4.01527e-313
2.54014e-312
-2.45096e-312
-3.35125e-312
3.43117e-313
-7.70983e-313
2.94037e-312
8.2048e-313
6.03548e-312
6.3606e-312
3.46257e-312
9.59852e-313
2.51967e-312
-1.09618e-312
-3.55608e-312
-4.52392e-312
3.62786e-312
1.90863e-313
-4.24375e-312
-1.06665e-311
-1.09112e-311
-1.24772e-311
-1.28921e-311
-1.48281e-311
-6.96474e-312
-9.77129e-312
-6.82821e-312
-6.85906e-312
-2.17802e-312
-9.09224e-313
5.70274e-313
-3.49818e-312
-4.88874e-312
-4.30996e-312
-3.71406e-312
-2.79247e-312
-2.1106e-313
-8.47213e-313
-1.59576e-312
2.73585e-312
2.51542e-312
1.37808e-312
4.52797e-312
1.45451e-312
3.15101e-312
1.1571e-312
4.72606e-312
-4.42143e-313
-1.88889e-312
1.38588e-312
3.11503e-312
4.62388e-312
1.32409e-312
2.35016e-312
-2.18145e-313
-3.53439e-312
-3.6474e-312
5.51184e-313
-1.42887e-312
-2.00047e-312
-3.04724e-312
1.53239e-312
2.48844e-312
4.13267e-313
-4.03596e-313
2.52767e-312
-1.47296e-312
4.82803e-313
-1.9393e-313
-1.72926e-312
1.58558e-312
-5.21547e-312
-4.64073e-312
-6.85033e-312
-5.99919e-312
-5.73246e-312
-3.77454e-312
-3.17989e-312
-2.64203e-313
-1.80417e-312
-5.43076e-313
3.15539e-313
-2.14048e-312
-3.05746e-312
2.90935e-312
5.41717e-313
8.89452e-313
8.40164e-313
6.54161e-312
8.43934e-312
6.94812e-312
6.68459e-313
-5.11657e-312
-4.27256e-312
-1.78421e-311
-2.60456e-311
4.37106e-312
7.90833e-312
-3.7865e-312
-8.33279e-312
-1.17222e-311
-9.97492e-312
-9.29185e-312
-1.23626e-311
-5.65012e-312
-9.46956e-312
-5.59441e-312
-8.05421e-312
-2.47197e-312
-1.20539e-312
-4.93287e-313
-1.30258e-312
-2.29764e-312
-6.07271e-313
-1.72769e-312
-8.60622e-313
-1.87495e-313
-9.0572e-313
-1.54121e-313
2.15087e-312
4.59902e-312
2.49935e-312
4.89355e-312
3.09095e-312
1.06667e-312
-2.8839e-313
2.56805e-312
-1.31185e-312
-2.39007e-312
7.00958e-313
3.19999e-312
4.45254e-312
2.8224e-312
1.87477e-312
9.65004e-313
-3.05292e-312
-2.33136e-312
-6.2072e-313
-5.81303e-313
-2.15508e-312
-1.33032e-312
3.7492e-312
4.02311e-312
9.64986e-313
-4.28209e-313
1.50425e-312
1.275e-312
2.20817e-312
1.48618e-312
-8.71189e-313
1.83202e-312
-1.15203e-312
-3.17983e-312
-4.38197e-312
-5.35253e-312
-5.74839e-312
-3.77342e-312
-4.33833e-312
-2.0776e-312
-1.60203e-312
2.52884e-314
-9.12678e-313
-1.62208e-312
-2.8732e-312
3.22202e-312
-7.25928e-313
7.5551e-314
-4.98659e-314
-2.85384e-313
-3.00823e-313
-3.25242e-312
-7.49414e-312
-1.1946e-311
-1.39471e-311
-2.1193e-311
-2.89653e-311
1.82594e-312
5.43546e-312
-3.05055e-312
-1.92898e-312
-1.02028e-311
-8.56857e-312
-1.16862e-311
-1.01352e-311
-9.47875e-312
-8.83337e-312
-7.02706e-312
-4.87508e-312
-1.71934e-312
3.10063e-313
-1.29162e-312
-2.09179e-312
-1.61388e-312
-9.80814e-313
-2.4145e-312
2.94039e-313
-3.38793e-313
1.60913e-312
1.30165e-312
2.83092e-312
4.58838e-312
2.70146e-312
2.6837e-312
9.47766e-313
1.31698e-312
-1.28076e-312
2.07783e-312
-1.83549e-312
-2.39137e-312
3.27121e-313
1.95907e-312
4.7861e-312
3.18159e-312
1.33098e-312
1.16628e-312
-3.03886e-312
-2.44411e-312
6.83215e-313
3.5224e-313
-2.89361e-312
-1.96769e-313
4.43221e-312
1.74813e-312
9.31055e-314
-1.78718e-312
6.31843e-313
1.8879e-312
1.77001e-312
2.10276e-312
1.80275e-312
1.05231e-312
5.31732e-313
-1.75183e-312
-2.65047e-312
-3.23597e-312
-3.91197e-312
-4.02388e-312
-3.67134e-312
-2.67782e-312
-1.3705e-312
1.78825e-313
1.21844e-312
1.00231e-312
-2.7028e-312
-7.93144e-313
-2.52507e-312
-4.79327e-313
4.02132e-313
-3.3905e-312
-8.95517e-313
-8.63918e-312
-6.02955e-312
-9.98492e-312
-1.31627e-311
-1.68632e-311
-1.77513e-311
3.59576e-312
8.25225e-312
6.61157e-312
9.20051e-314
-9.07758e-312
-1.19564e-311
-1.33197e-311
-1.42777e-311
-1.43652e-311
-1.04789e-311
-6.82815e-312
-9.65085e-312
-4.47118e-312
-1.7208e-312
-3.88053e-312
-2.44964e-312
-1.84245e-312
8.73685e-313
-2.10254e-312
-1.0146e-312
-7.77912e-314
3.268e-312
2.50396e-312
3.9267e-312
5.06402e-312
1.62686e-312
6.08307e-313
4.78271e-313
2.67166e-312
1.77496e-312
3.61823e-312
1.0523e-312
-1.34785e-312
1.59302e-312
7.32923e-313
5.06738e-312
3.40037e-312
1.79114e-312
2.04076e-312
-2.28842e-312
-3.1794e-312
2.89633e-312
1.8716e-312
-2.55778e-312
-3.54917e-313
3.08779e-312
1.73052e-312
-1.13406e-312
-2.24645e-312
-1.49463e-312
5.30683e-313
1.55378e-313
4.73542e-313
1.83583e-312
-7.95114e-313
-7.03871e-313
-4.07937e-312
-6.68932e-312
-4.5188e-312
-5.14361e-312
-3.77143e-312
-2.10051e-312
1.00906e-312
2.71064e-314
1.05295e-312
3.75645e-312
1.58968e-312
-6.74578e-313
-4.90904e-312
-5.27403e-312
-3.85466e-312
-8.24807e-313
-9.00088e-313
6.71337e-313
-2.32038e-312
-6.18806e-312
-1.05029e-311
-1.74124e-311
-2.21491e-311
-1.83908e-311
4.99368e-312
8.33893e-312
1.27496e-311
3.37664e-312
-3.1203e-312
-1.33041e-311
-1.04995e-311
-1.29103e-311
-1.17491e-311
-1.21112e-311
-8.49024e-312
-1.22133e-311
-7.19634e-312
-3.84369e-312
-3.62423e-312
-4.30871e-312
-3.08381e-312
-6.87389e-314
-7.29181e-314
-3.29288e-312
-7.01827e-313
1.50711e-312
8.03341e-314
5.09635e-312
4.61029e-312
1.76726e-312
1.65807e-313
1.34765e-312
1.886e-312
4.20712e-312
5.01324e-312
2.20409e-312
-2.86586e-313
-1.23041e-312
-1.52609e-312
2.76295e-312
2.55064e-312
2.23436e-312
2.52685e-312
-6.96261e-313
-2.1082e-312
1.31415e-312
9.89102e-314
-4.03374e-312
-8.76413e-313
2.21934e-312
2.07039e-312
-2.06049e-312
-1.94461e-312
-1.27713e-312
9.5436e-313
2.78158e-312
-5.06783e-313
7.79343e-313
-8.7581e-313
-9.92773e-313
-3.21959e-312
-4.10683e-312
-3.71372e-312
-2.79134e-312
-2.00452e-312
-1.59945e-312
1.87599e-312
1.40533e-312
4.16413e-312
4.47874e-312
3.44975e-312
-1.4087e-312
-5.1329e-312
-7.10194e-312
-1.1769e-312
-2.01153e-312
3.01504e-312
3.42812e-312
-2.33388e-312
-3.89842e-312
-7.81891e-312
-9.96943e-312
-2.40857e-311
-2.57924e-311
1.42093e-311
1.69745e-311
1.14717e-311
6.53564e-312
-1.47123e-312
-9.09787e-312
-1.25077e-311
-1.14672e-311
-8.71383e-312
-1.08771e-311
-8.18331e-312
-1.10961e-311
-6.37829e-312
-1.62254e-312
-2.51721e-312
-3.69487e-312
-4.66576e-312
-2.09358e-312
-1.3955e-312
-8.84723e-313
-1.92061e-312
7.69453e-314
-2.33639e-312
2.06774e-312
4.02895e-312
1.49389e-312
2.81823e-314
2.82887e-312
1.18347e-312
4.59389e-312
6.10405e-312
1.1611e-312
8.62193e-313
3.71832e-313
-1.5158e-312
2.89118e-312
2.92305e-312
1.96129e-312
2.6608e-312
-1.32953e-312
-1.04486e-312
1.07608e-313
-2.57225e-313
-2.99773e-312
-1.72984e-312
1.87392e-312
2.00932e-312
-1.02788e-312
-7.75183e-313
-7.96477e-313
-9.36302e-314
3.87546e-312
-7.46527e-313
-3.44445e-313
-1.15199e-312
-1.57926e-312
-2.76694e-312
-3.74859e-312
-3.25084e-312
-2.29804e-312
-2.56931e-312
8.32716e-313
5.51399e-313
2.61677e-312
3.87024e-312
5.69086e-314
1.16094e-313
-2.29671e-312
-4.42812e-312
-6.304e-312
-3.4552e-313
-2.73273e-312
2.95532e-312
1.17115e-314
1.45985e-312
-4.21841e-312
-7.16027e-312
-9.98093e-312
-1.267e-311
-1.00695e-311
5.14644e-312
7.92672e-312
7.0238e-312
1.83297e-312
-3.58459e-312
-1.12302e-311
-1.35434e-311
-1.71249e-311
-1.36137e-311
-1.22582e-311
-8.92979e-312
-9.73308e-312
-5.48036e-312
-1.36197e-312
-5.70322e-313
-6.74488e-313
-2.11962e-312
-8.55862e-313
-8.48408e-313
2.38141e-313
-3.99809e-312
-7.85015e-313
-3.08774e-312
1.37158e-312
4.57351e-312
1.64017e-312
-6.78036e-313
2.92121e-312
1.52597e-312
3.59862e-312
5.06358e-312
7.56643e-313
3.09746e-313
-5.60516e-314
2.43953e-313
2.45155e-312
4.49828e-312
3.14791e-312
1.69361e-312
-7.00882e-314
-2.83272e-312
-9.19653e-313
-7.33693e-313
-3.03066e-312
-1.13198e-312
2.28299e-312
4.17604e-313
-3.84954e-312
-2.30854e-312
-2.091e-312
-3.46446e-313
5.60106e-313
1.19842e-312
-4.25982e-313
-8.63446e-313
-1.58313e-312
-1.75831e-312
-4.06379e-312
-2.40171e-312
-1.93181e-312
-2.52944e-312
-9.83201e-313
8.68558e-314
8.12174e-313
5.2433e-312
8.26966e-313
1.41491e-312
-1.35052e-312
-4.35365e-312
-4.77794e-312
-3.75994e-312
-2.96042e-312
7.83172e-313
-2.91487e-312
-1.37691e-312
-6.8243e-312
-1.29405e-311
-1.26538e-311
-1.23211e-311
-5.32725e-312
5.49941e-313
7.62722e-312
4.73416e-312
5.5747e-312
-2.94783e-312
-8.05166e-312
-1.54984e-311
-1.98138e-311
-1.81393e-311
-1.14422e-311
-1.43408e-311
-8.82344e-312
-1.02346e-311
-4.48812e-312
-3.43679e-312
-1.06752e-312
-3.30541e-312
-1.462e-312
8.61209e-313
-1.24471e-312
-4.28592e-312
-8.36234e-313
-3.22121e-312
6.56626e-313
4.33414e-312
5.56155e-313
-1.57134e-312
1.05398e-312
-8.16592e-313
2.39439e-312
4.0061e-312
1.82723e-312
3.44628e-314
-1.48104e-312
5.55095e-313
2.31041e-312
3.13288e-312
3.59401e-312
1.0452e-312
8.76898e-313
-3.63073e-312
-3.31693e-313
-7.25292e-313
-1.82961e-312
1.11762e-312
-2.4752e-314
1.08101e-312
-3.54397e-312
-3.51682e-312
-2.24641e-312
-1.50411e-312
-8.04491e-313
2.46896e-313
-2.51218e-313
-1.05201e-312
-1.21126e-312
-9.21817e-313
-2.94154e-312
-1.25187e-312
-1.82332e-312
-1.57801e-312
-2.55269e-312
5.73311e-313
-2.36882e-312
3.25498e-312
8.93315e-313
2.03864e-312
-1.90391e-312
-2.71721e-312
-4.49208e-312
-4.97464e-312
-5.96549e-312
-5.94659e-312
-4.33633e-312
-5.27311e-312
-7.56442e-312
-1.77317e-311
-1.91318e-311
-1.86277e-311
-1.60892e-311
2.23606e-311
1.93275e-311
1.52008e-311
1.4192e-311
2.33615e-312
-1.77166e-312
-9.67844e-312
-1.72442e-311
-1.4753e-311
-1.27447e-311
-1.35326e-311
-9.75862e-312
-1.20551e-311
-2.51283e-312
-3.65552e-312
-4.5637e-313
-3.16092e-312
-1.10291e-312
2.04191e-312
-1.22405e-312
-6.9859e-313
-4.83389e-312
-4.19287e-312
-1.80671e-312
3.07548e-312
6.24636e-313
-1.24724e-312
1.11471e-312
-1.4038e-312
2.10697e-312
3.86299e-312
1.50943e-312
6.17991e-313
-3.72426e-313
8.06614e-313
4.66071e-313
1.22838e-312
1.40636e-312
5.08558e-313
1.8823e-312
-2.4289e-312
-9.82431e-314
-2.79847e-312
-1.98472e-312
1.36002e-312
-3.06722e-313
2.94355e-312
-1.66438e-312
-3.84847e-312
-2.14578e-312
-3.07889e-312
-1.08132e-312
-2.68912e-312
-2.132e-312
-3.00797e-312
-5.99571e-313
-7.92894e-313
-3.2467e-312
-2.57582e-312
-7.1963e-312
-3.83638e-312
-4.29717e-312
-1.05333e-312
-2.30224e-312
-1.62047e-312
6.81705e-313
-2.83224e-312
-3.14024e-312
-3.8918e-312
-4.75798e-312
-2.94973e-312
-4.10559e-312
-6.69278e-312
-4.65676e-312
-8.13576e-312
-5.84856e-312
-1.39352e-311
-1.64339e-311
-1.76133e-311
-2.20494e-311
2.32467e-311
2.16266e-311
2.05229e-311
2.02914e-311
1.11743e-311
4.29634e-312
-4.01439e-312
-8.7075e-312
-1.10155e-311
-8.89268e-312
-9.33045e-312
-9.77683e-312
-6.8161e-312
-2.08836e-312
-5.7437e-312
-2.89772e-314
-2.31725e-312
-1.33449e-312
1.33309e-312
-1.36556e-312
-2.06963e-312
-2.43386e-312
-5.23827e-312
-1.98021e-312
1.02252e-312
-1.80193e-313
-3.57654e-312
1.93573e-312
-1.97918e-312
4.06174e-312
2.46786e-312
1.90585e-312
-1.04405e-312
-9.06896e-313
1.38089e-312
2.36856e-313
1.41744e-312
6.00435e-313
1.37138e-313
2.4094e-312
-3.50266e-313
3.15067e-312
-3.11294e-312
-1.34251e-312
-4.39996e-313
1.87271e-312
2.29898e-312
2.57484e-313
-2.24098e-312
-1.2049e-312
-3.84251e-312
-8.33834e-313
-4.51637e-312
-2.15132e-312
-4.52201e-312
-4.2497e-312
-2.98601e-312
-7.1352e-312
-5.93219e-312
-1.11023e-311
-7.174e-312
-6.28696e-312
-4.34512e-312
-1.45092e-312
-1.72639e-312
-6.88426e-313
-3.83674e-312
-3.49181e-312
-4.35747e-312
-7.38376e-312
-4.83975e-312
-5.32412e-312
-4.56093e-312
-7.78229e-312
-1.13753e-311
-5.41532e-312
-1.03841e-311
-1.45231e-311
-2.03459e-311
-2.3903e-311
2.18619e-311
1.87287e-311
1.81912e-311
2.17639e-311
1.44589e-311
3.26357e-312
-6.24557e-312
-8.96265e-312
-1.36347e-311
-8.80057e-312
-7.14554e-312
-5.9812e-312
-5.98807e-312
-1.98966e-312
-4.65753e-312
1.47481e-312
-2.34626e-312
-1.76276e-312
1.5201e-312
-1.19518e-312
-3.09602e-312
-2.37143e-312
-4.474e-312
-1.14109e-312
3.71476e-313
-3.51757e-312
-4.38246e-312
1.19909e-312
-9.10708e-313
6.86833e-313
1.61615e-312
1.38498e-313
-8.38779e-313
-1.70999e-312
5.6826e-313
-5.30143e-313
1.53357e-312
5.10822e-313
3.91975e-313
2.85203e-312
4.20622e-313
3.3708e-312
-2.59425e-312
-2.61201e-312
8.78443e-313
1.1416e-312
1.36587e-312
5.89398e-313
-9.57351e-313
-6.56804e-313
-2.46019e-312
1.22575e-313
-3.91813e-312
-3.61103e-312
-4.79921e-312
-5.10486e-312
-2.04927e-312
-6.16069e-312
-6.2271e-312
-8.07031e-312
-7.88221e-312
-3.14826e-312
-2.97942e-312
-9.70745e-313
2.82568e-313
-1.55351e-312
-3.45362e-312
-2.98688e-312
-5.04195e-312
-4.05492e-312
-5.59664e-312
-3.31651e-312
-4.16527e-312
-4.76491e-312
-1.04615e-311
-7.18794e-312
-1.48489e-311
-2.49803e-311
-2.92976e-311
-2.89689e-311
1.99198e-311
1.58858e-311
1.48329e-311
2.10892e-311
1.95269e-311
6.66902e-312
-2.91727e-312
-7.51719e-312
-1.23425e-311
-1.0048e-311
-6.57638e-312
-6.16205e-312
-5.3654e-312
-3.31895e-312
-3.63318e-312
-8.84104e-314
-5.72058e-312
-8.63425e-313
6.75841e-313
9.90624e-313
-2.38998e-312
-4.75719e-312
-5.31263e-312
-2.15231e-312
-1.36388e-312
-4.28831e-312
-4.27174e-312
-2.47215e-312
-1.16502e-312
-1.14689e-312
1.23393e-313
9.71816e-313
-5.09995e-314
-1.38739e-312
-2.00871e-312
-1.4563e-312
1.62386e-313
6.05707e-313
-9.71506e-313
5.53548e-313
-5.17078e-313
6.23456e-314
-3.3103e-312
-3.45056e-312
1.09731e-312
8.65317e-313
2.93516e-312
-1.32658e-313
3.90879e-313
-2.48286e-312
-6.22694e-313
-3.05685e-312
-2.00866e-312
-3.78604e-312
-2.64756e-312
-3.46159e-312
-1.46774e-312
-5.28518e-312
-7.44323e-312
-7.38818e-312
-6.31736e-312
-1.43637e-312
9.3431e-313
2.57512e-314
-7.03983e-313
-1.24231e-312
-1.62981e-312
-1.77095e-312
-6.89777e-313
-3.63579e-312
-9.36323e-314
2.15931e-312
-4.26806e-312
-3.9588e-312
-6.51427e-312
-1.13317e-311
-1.60722e-311
-2.36762e-311
-2.04811e-311
-7.40536e-312
1.42686e-311
1.46686e-311
1.82765e-311
1.75689e-311
2.0152e-311
1.51834e-311
5.85116e-312
-1.05624e-312
-7.01846e-312
-6.87191e-312
-6.83505e-312
-5.60446e-312
-3.92718e-312
-2.44392e-312
-2.46215e-312
-2.77381e-312
-3.66381e-312
-3.84303e-312
-3.90621e-314
7.94518e-313
-2.42456e-312
-4.18045e-312
-6.11528e-312
-3.40589e-312
-1.09014e-312
-4.15622e-312
-4.75311e-312
-3.31137e-312
-1.26084e-312
-1.35207e-312
-1.15102e-312
-1.79513e-313
-1.46631e-312
-1.33869e-312
-1.98605e-312
-1.86273e-312
-2.75617e-312
3.89392e-313
-2.76016e-312
-2.21494e-312
-1.4952e-312
-1.15679e-312
-4.7928e-312
-5.53304e-312
-1.23546e-312
3.13461e-313
2.78465e-312
3.87987e-313
6.09552e-313
-3.65353e-312
-1.54875e-312
-2.85145e-312
-2.44741e-312
-4.31012e-312
-2.3422e-312
-2.65351e-312
-2.73486e-312
-4.68486e-312
-5.9935e-312
-5.78425e-312
-5.099e-312
-3.37627e-312
-3.17437e-312
-3.01672e-312
-3.07819e-312
1.11223e-312
-1.39773e-312
-5.43543e-313
-2.55263e-312
-1.71018e-312
-1.90816e-312
-1.96461e-312
-9.47909e-312
-9.52483e-312
-1.03173e-311
-1.40082e-311
-1.87988e-311
-1.52559e-311
-1.07091e-311
-2.61045e-312
-1.92912e-312
7.31191e-312
1.1907e-311
1.53219e-311
2.22378e-311
2.00812e-311
1.22082e-311
4.90925e-312
-1.96059e-312
-2.29297e-312
-3.18373e-312
-2.22395e-312
-4.57721e-312
-3.03742e-312
-1.62962e-312
-4.00874e-312
-3.80049e-312
-5.69233e-312
-6.74736e-313
-2.99814e-312
-1.98859e-312
-3.22864e-312
-5.45269e-312
-4.26972e-312
-1.66329e-312
-4.48886e-312
-6.34186e-312
-4.30224e-312
-4.01148e-312
-3.18629e-312
-8.61597e-314
-2.20367e-312
-2.30839e-312
-1.10341e-312
-1.4011e-312
-2.28298e-312
-4.05542e-312
-4.79806e-313
-3.58616e-312
-1.07813e-312
-2.95626e-312
5.42383e-313
-3.94769e-312
-3.90794e-312
-2.23335e-312
1.01739e-313
3.14693e-312
3.30552e-312
-9.0002e-313
-5.71849e-313
-1.57927e-312
-2.77419e-312
-7.58931e-313
-5.30992e-312
-2.81583e-312
-5.21596e-312
-2.9301e-312
-5.32197e-312
-6.00292e-312
-7.48027e-312
-7.94381e-312
-5.50605e-312
-2.01828e-312
-2.14319e-312
-7.84733e-313
1.17996e-313
4.88871e-313
-6.65376e-313
-4.2533e-312
-1.63617e-312
-4.14363e-312
-5.6296e-312
-9.18011e-312
-1.02999e-311
-1.36818e-311
-9.00479e-312
-1.21671e-311
-1.24644e-311
-1.54356e-311
-1.65384e-311
-1.42655e-311
-2.02176e-312
9.01225e-312
1.45968e-311
2.01864e-311
1.5148e-311
7.22221e-312
9.01042e-313
-4.32322e-312
-5.21753e-312
4.70449e-313
-3.05388e-312
-1.93053e-312
-2.09993e-312
-1.34926e-312
-3.78031e-312
-5.5254e-312
-5.69446e-312
-4.29286e-313
-3.1887e-312
-2.79459e-312
-3.22414e-312
-3.94486e-312
-3.17309e-312
-1.29366e-312
-5.44172e-312
-5.49162e-312
-4.91211e-312
-5.62302e-312
-3.90394e-312
-1.03313e-312
-1.4432e-312
-1.3108e-312
-9.76876e-313
-5.18106e-313
-2.51183e-312
-5.65135e-312
-1.89308e-312
-3.69594e-312
-1.28116e-312
-3.28652e-312
1.61637e-312
-3.69525e-312
-4.31771e-312
-2.85636e-312
-4.37575e-314
3.78539e-312
3.11994e-312
-1.0201e-312
1.3036e-312
8.91948e-315
-7.36314e-313
1.53483e-312
-4.07352e-312
-2.56571e-312
-4.28362e-312
-3.41514e-312
-3.73461e-312
-6.76126e-312
-8.98283e-312
-6.5339e-312
-6.62578e-312
-2.76966e-312
-1.98382e-312
1.1911e-312
2.33835e-313
2.28922e-312
4.55928e-313
-1.18305e-312
-1.40674e-312
-4.17253e-312
-4.87409e-312
-8.55369e-312
-1.13325e-311
-1.47092e-311
-1.15501e-311
-1.45278e-311
-1.6179e-311
-2.30593e-311
-1.81707e-311
-2.03805e-311
-8.84598e-312
7.01532e-312
1.08865e-311
1.72172e-311
1.13281e-311
5.41025e-312
1.25961e-313
-5.17358e-312
-2.83888e-312