/*--------------------------------*- C++ -*----------------------------------*\
  =========                 |
  \\      /  F ield         | OpenFOAM: The Open Source CFD Toolbox
   \\    /   O peration     | Website:  https://openfoam.org
    \\  /    A nd           | Version:  11
     \\/     M anipulation  |
\*---------------------------------------------------------------------------*/
FoamFile
{
    format      ascii;
    class       volScalarField;
    location    "100";
    object      C;
}
// * * * * * * * * * * * * * * * * * * * * * * * * * * * * * * * * * * * * * //

dimensions      [0 0 0 1 0 0 0];

internalField   nonuniform List<scalar> 
427520
(
-1.77666e-312
-3.16262e-312
-6.28637e-312
-4.91799e-312
-1.30449e-311
-6.01359e-312
-9.60453e-312
-1.13307e-311
1.64271e-311
1.46645e-311
3.94951e-312
3.51505e-312
7.25942e-312
2.3427e-311
4.69076e-312
1.25754e-311
2.68062e-311
-4.76945e-312
-2.66737e-312
4.22879e-312
4.87627e-312
3.66122e-312
-7.00539e-312
-1.22862e-311
-1.25611e-311
-4.4893e-312
1.64551e-311
8.52001e-312
4.66845e-312
-1.43514e-311
-2.97407e-311
1.23326e-312
2.83701e-312
-8.34608e-312
-7.53292e-312
-1.63831e-311
2.00735e-311
-1.63144e-311
-2.03077e-311
-1.28785e-311
-1.57322e-311
-1.9616e-312
-2.30975e-312
1.26715e-311
8.40612e-312
4.23737e-312
1.9441e-311
1.15984e-312
1.19923e-311
6.30023e-312
-2.99981e-312
-6.0329e-312
-2.82205e-311
-3.07257e-312
-2.78176e-311
2.77308e-312
4.69983e-313
2.20731e-311
-1.96869e-311
-1.9601e-311
-6.14054e-312
4.10895e-312
2.09927e-311
3.95481e-312
5.53519e-314
-2.62787e-311
-1.03983e-311
-8.62014e-312
-1.28846e-311
-3.11765e-312
-3.5281e-313
1.52047e-311
4.47217e-311
4.77326e-311
-1.18531e-311
1.01128e-311
-1.99122e-312
6.96362e-313
2.18315e-311
-1.94651e-311
-1.82586e-311
2.77839e-311
1.90189e-311
-8.35044e-312
4.01446e-311
1.3744e-311
-2.91358e-311
-9.41426e-312
2.39152e-312
1.18473e-311
1.99809e-311
1.51698e-311
1.46612e-311
1.6205e-311
2.45705e-311
1.98439e-311
1.62544e-311
1.09291e-311
4.41886e-311
6.01554e-312
-4.41483e-312
-1.77936e-313
-2.28912e-311
-3.37305e-311
-1.54181e-311
3.93836e-313
-4.9879e-312
-4.37659e-311
-2.94324e-311
-4.33066e-311
-3.10508e-311
-5.06017e-311
-3.19157e-311
1.28862e-311
-2.14524e-311
-5.34512e-311
-1.89738e-311
-2.18989e-311
-3.19757e-311
-6.60814e-311
-4.08588e-311
-5.37896e-311
-5.90766e-312
-1.52793e-311
4.40495e-312
4.49861e-312
1.61551e-311
-1.39066e-311
9.43369e-312
-2.81678e-311
-2.01831e-311
-9.32903e-312
-3.06953e-311
-1.93928e-311
-3.17114e-311
-2.74351e-311
-1.18793e-311
3.10972e-311
2.28644e-311
-1.04e-312
6.35172e-312
1.61302e-311
1.96873e-311
1.78138e-311
-2.01387e-311
-4.80929e-311
-2.27319e-311
7.69013e-312
-2.56989e-312
1.58989e-311
9.81096e-312
3.91877e-312
2.14574e-311
-2.1251e-312
-4.10217e-311
-2.26089e-311
-1.57541e-311
-5.15724e-311
1.45479e-311
-5.00139e-312
-1.88109e-310
-5.5391e-311
7.51128e-312
1.93248e-311
5.19833e-311
5.7328e-311
2.21433e-311
2.17601e-311
6.32418e-312
6.59607e-312
2.22578e-311
7.44769e-312
6.03281e-312
2.90802e-311
4.72885e-311
2.36434e-311
4.52533e-312
3.42485e-311
6.06392e-311
2.45989e-311
-4.46055e-314
2.11237e-311
2.21984e-313
-2.34202e-311
2.31358e-311
6.3119e-312
-6.42104e-312
-7.49773e-311
-2.83495e-311
-4.67128e-311
-2.55606e-311
-2.74461e-311
-1.84714e-311
1.40574e-311
-1.16724e-311
-1.91077e-311
1.55127e-312
-4.37746e-311
-1.49718e-311
-5.3469e-311
1.52539e-312
-5.11149e-311
-5.59849e-312
3.01987e-312
2.44627e-311
2.51447e-311
-9.0305e-312
-2.07682e-311
-1.46793e-311
-7.54038e-311
-5.75258e-311
-7.14616e-311
-5.21713e-311
-7.59242e-311
-6.49534e-311
-3.74764e-311
1.7199e-311
2.78559e-311
3.14525e-311
-2.61689e-311
3.05932e-311
1.55529e-311
-2.59734e-312
2.85242e-311
-8.58868e-312
-2.3784e-311
1.91206e-311
2.44684e-311
2.62857e-311
3.42804e-311
3.2995e-311
6.16252e-311
4.71022e-312
1.17107e-311
9.06898e-312
1.60555e-311
4.37773e-311
8.1151e-312
-4.65577e-311
-1.49125e-310
-1.09378e-310
-6.04424e-312
-5.20517e-311
5.32996e-311
3.64548e-311
5.91725e-311
2.94929e-311
2.52337e-311
4.25415e-311
2.6442e-311
1.63871e-311
1.80521e-311
4.81671e-311
4.66439e-311
2.378e-311
4.44734e-311
3.61234e-311
7.8494e-311
8.2681e-311
9.98114e-311
5.96727e-311
3.98246e-311
7.30228e-311
4.29845e-312
4.404e-311
6.7787e-312
2.18326e-311
-1.76486e-312
3.22791e-312
-9.63713e-313
-2.77468e-311
-3.81918e-311
1.20421e-311
4.36672e-311
4.86329e-311
2.00099e-311
5.11097e-312
-3.12326e-311
-4.81843e-313
-5.12282e-311
3.50151e-311
-1.97719e-311
2.48815e-311
6.55492e-311
1.14469e-311
-1.28627e-311
-3.16414e-311
-5.84032e-311
-2.21887e-311
-7.94734e-311
-1.04308e-310
-5.54478e-311
-2.47934e-311
-7.42634e-311
-5.2752e-311
-2.44754e-311
1.76883e-311
7.0175e-314
8.38098e-313
3.12607e-311
3.61233e-311
3.84457e-311
3.11344e-311
2.85783e-311
-6.34033e-312
-6.74133e-312
2.00934e-312
1.12043e-311
4.24714e-312
1.65919e-311
3.52691e-311
5.40924e-311
2.68284e-311
-3.28195e-312
-1.60476e-311
2.04953e-311
-1.96728e-311
-1.31718e-311
-2.84347e-311
-1.11145e-310
7.07932e-311
-3.76998e-311
-8.80767e-311
2.57194e-311
5.64587e-312
1.51684e-311
4.69918e-311
4.28487e-311
5.64768e-311
4.67523e-311
2.89871e-311
5.72822e-311
2.70848e-311
7.99498e-312
3.68676e-312
6.41796e-311
5.01166e-311
5.07426e-311
8.29423e-311
1.1434e-310
8.04927e-311
3.00734e-311
4.36716e-311
4.89106e-311
4.41235e-311
6.4403e-311
4.8793e-311
6.11533e-311
1.80568e-311
-7.72819e-313
-2.5957e-311
-6.73813e-311
-3.61005e-311
1.01243e-311
5.49417e-311
6.80509e-311
-1.71636e-311
-1.25217e-311
2.38253e-311
-8.50239e-312
4.44493e-311
-7.86905e-312
6.37394e-311
8.32369e-311
6.0457e-311
-2.05512e-311
-5.60727e-311
-4.74887e-311
-1.73645e-311
-7.9791e-311
-3.63429e-311
-2.93574e-311
-1.9554e-311
-3.56461e-311
-2.07705e-311
9.61735e-312
6.87803e-311
1.5869e-311
2.84378e-312
4.083e-311
3.41771e-311
6.5914e-311
4.48584e-311
3.96391e-311
1.39161e-312
-2.23802e-311
-4.5173e-311
-3.88669e-311
-1.78659e-311
1.45764e-311
3.83131e-311
3.63985e-311
-8.81974e-312
-5.9129e-311
-5.94195e-311
-9.4023e-311
-6.46571e-311
-6.65023e-311
4.15755e-311
-6.27105e-311
2.68694e-311
-5.52202e-311
1.39077e-311
1.52014e-311
-2.25483e-311
4.09474e-311
7.30579e-311
7.69426e-311
7.38834e-311
7.73722e-311
6.89245e-311
1.02516e-310
8.19118e-311
2.64752e-311
1.29845e-311
2.49378e-311
1.9654e-311
-6.00277e-312
5.01082e-311
8.74267e-311
6.90848e-311
6.12133e-311
3.5651e-311
4.95561e-311
5.00991e-311
9.58848e-311
6.09856e-311
6.95679e-311
4.93873e-311
-1.39814e-311
-2.11417e-311
-1.03979e-311
-2.98241e-312
5.09363e-311
7.80531e-311
7.18224e-311
5.07601e-311
3.82595e-311
3.48313e-311
-1.52166e-311
-3.64568e-312
4.34069e-311
7.95656e-311
9.089e-311
2.23165e-311
-1.48337e-311
-2.03069e-311
-2.58817e-311
3.85384e-312
-2.70642e-311
-4.89833e-311
-6.985e-311
-2.97744e-311
-1.06128e-311
7.39646e-312
3.18201e-311
6.72819e-311
1.85986e-311
-5.43877e-312
2.6579e-311
1.86684e-311
3.85e-311
1.22988e-311
2.3711e-311
-1.80227e-312
-1.1487e-311
-4.70008e-311
-4.53998e-312
-5.25939e-312
-8.30736e-314
-1.06344e-311
-4.81308e-311
-6.63971e-311
-8.48184e-311
-1.10146e-310
-8.91597e-311
-1.53758e-310
-1.33162e-310
-1.46518e-310
-1.61763e-310
-1.30266e-312
3.59706e-311
1.32348e-311
-6.02742e-311
-7.21416e-311
1.1832e-311
9.24873e-311
6.46968e-311
1.06527e-310
1.01783e-310
1.00572e-310
1.03425e-310
9.36191e-311
5.35417e-311
5.04093e-311
2.10316e-311
6.35855e-311
-9.67839e-312
6.12386e-312
3.61797e-312
5.82536e-311
5.08963e-311
3.57861e-311
2.81712e-311
3.22024e-311
4.42391e-311
7.74795e-311
4.47667e-311
5.35129e-311
1.16075e-311
-1.51866e-313
-2.98874e-311
-2.00224e-311
4.271e-311
4.98165e-311
6.59889e-311
5.50621e-311
4.19368e-311
3.53576e-311
4.24222e-311
-3.79003e-312
9.17248e-311
7.93369e-311
5.44724e-311
2.93707e-311
-2.0696e-311
-3.23399e-311
-7.7558e-312
-1.85448e-311
-4.53202e-311
-6.98036e-311
-2.26692e-311
-7.04915e-312
-2.41942e-311
5.10686e-311
1.09632e-310
1.04942e-310
6.46396e-312
-1.497e-311
-1.11112e-312
-1.73789e-311
1.55514e-311
2.09721e-311
-4.98517e-312
2.64248e-311
6.29242e-312
-2.71964e-311
3.9241e-311
2.21164e-311
-2.61757e-311
-3.9946e-311
-1.13604e-310
-1.04067e-310
-7.92566e-311
-1.3638e-310
-7.26349e-311
-8.60203e-311
-3.59919e-311
1.03995e-310
2.98329e-310
6.96729e-311
5.51457e-311
-2.70454e-311
7.1588e-311
2.30079e-311
6.803e-312
1.81083e-311
6.64217e-311
6.11927e-311
4.02211e-311
9.82528e-311
8.47142e-311
6.39944e-311
6.80933e-311
1.01457e-310
5.3536e-311
6.87201e-311
2.44685e-311
-9.14541e-312
-2.4791e-311
2.24123e-311
2.95862e-311
4.09368e-311
6.52979e-311
2.64684e-311
6.97659e-311
9.78895e-311
3.39409e-311
2.72251e-311
3.36492e-311
3.07032e-311
7.45981e-313
-3.20066e-311
2.07936e-311
6.75101e-311
8.20921e-311
4.97067e-311
6.34424e-311
3.06353e-311
7.41188e-311
-1.3056e-311
4.42544e-311
8.17783e-311
3.1311e-311
2.83517e-311
-1.062e-311
-3.96074e-311
-1.6912e-311
-3.39096e-311
-3.7112e-311
-1.77118e-311
6.40613e-312
-3.39728e-312
-4.9872e-311
5.70687e-311
1.31941e-310
1.07097e-310
4.89129e-311
-8.76579e-312
3.14441e-313
-4.85426e-312
-1.54532e-311
-7.66386e-312
-3.85413e-313
4.58448e-311
3.27408e-311
-4.49001e-311
8.10991e-312
1.48311e-311
-2.69303e-311
-5.26097e-311
-9.5457e-311
-1.42049e-310
-1.01511e-310
-6.52121e-311
-7.59304e-311
-1.78762e-310
-8.56507e-312
3.0273e-310
3.05683e-310
-2.20009e-311
3.37437e-311
-4.57209e-311
2.21369e-311
2.15027e-311
3.75854e-311
9.32694e-312
6.86684e-311
6.67742e-311
6.13429e-311
8.21713e-311
4.67797e-311
2.23361e-311
6.9704e-311
9.14878e-311
7.2138e-311
7.1006e-311
4.73799e-311
-3.09958e-312
7.2796e-312
3.91535e-311
5.91031e-311
6.8261e-311
6.40525e-311
2.56149e-311
7.99461e-311
1.12508e-310
7.74341e-311
2.33413e-311
4.14597e-311
-2.81832e-311
3.38879e-312
-3.80124e-311
2.58777e-312
7.01745e-311
8.83818e-311
8.48972e-311
4.53601e-311
6.34267e-311
8.63399e-311
1.92386e-311
6.19901e-311
9.5178e-311
6.77497e-311
1.93003e-311
3.72944e-311
-1.5922e-311
-3.05381e-311
-2.05427e-311
-3.19639e-311
-5.9487e-311
5.53014e-312
-1.41492e-311
-3.39465e-311
3.15747e-311
8.26767e-311
9.21334e-311
1.76487e-311
-9.89254e-312
-3.23969e-313
3.05793e-311
-3.24726e-311
-5.37027e-311
-5.81888e-311
1.5648e-311
-4.71396e-312
-2.0409e-311
-3.33107e-313
1.64514e-312
-3.90509e-311
-7.89992e-311
-1.13452e-310
-1.37463e-310
-9.46398e-311
-1.0752e-310
-9.57578e-311
-7.02616e-311
1.60508e-310
2.26016e-310
4.59484e-310
-4.10011e-310
-5.22584e-311
-1.10686e-310
-4.72441e-311
-1.90008e-312
-3.01808e-311
-2.80332e-311
-2.85197e-311
-9.42041e-312
2.44321e-312
7.42496e-311
3.79664e-311
6.46465e-311
5.9323e-311
3.53422e-311
5.69786e-311
4.49561e-311
4.35071e-311
3.09151e-311
2.44025e-311
6.43343e-311
6.7186e-311
5.94619e-311
4.57847e-311
2.88426e-311
8.28051e-311
7.87314e-311
6.32068e-311
5.24987e-311
8.14888e-311
2.29651e-311
1.11212e-311
6.83689e-312
2.97277e-312
5.2548e-311
8.55729e-311
1.34356e-310
4.2654e-311
6.34637e-311
1.05435e-310
6.7359e-311
9.60373e-311
8.69246e-311
8.72151e-311
2.14102e-311
2.14432e-311
2.31318e-311
7.62358e-312
-3.70599e-312
-5.17148e-311
-6.5465e-311
-6.00126e-313
1.26485e-311
-3.82313e-311
4.30321e-311
5.3156e-311
8.44398e-311
-6.03012e-312
6.61909e-312
-1.05698e-312
2.72714e-311
-4.83789e-311
-2.18652e-311
-3.92217e-311
2.57686e-311
-4.36029e-311
-7.28561e-311
-3.40712e-311
-1.78821e-311
-3.42329e-311
-7.71503e-311
-1.28217e-310
-1.05896e-310
-9.84938e-311
-7.09428e-311
-5.71881e-311
1.39441e-311
2.05615e-310
3.22436e-310
4.00664e-310
-5.73643e-310
-2.52687e-310
-1.32128e-310
2.58004e-311
4.97642e-312
2.02581e-311
-1.30009e-311
-5.67113e-311
-5.1827e-311
-3.15595e-311
2.49513e-311
9.23829e-311
1.045e-310
5.35461e-311
2.63899e-311
-6.896e-312
9.65673e-312
1.07479e-311
-8.42556e-312
2.87977e-311
5.51251e-311
6.50836e-311
6.77633e-311
3.79416e-311
5.77741e-311
7.51162e-311
5.9734e-311
3.79683e-311
7.18289e-311
1.09405e-311
1.85359e-311
3.44326e-311
1.32773e-311
1.66247e-311
8.95275e-311
9.55878e-311
9.81153e-311
4.5855e-311
3.23932e-311
9.98591e-311
7.0927e-311
1.17509e-310
8.75107e-311
1.01297e-310
4.68808e-311
6.9401e-311
4.97324e-311
4.94068e-311
-1.7221e-312
-7.31175e-311
-8.71615e-311
2.72668e-311
-1.01872e-311
-5.11215e-311
1.80384e-311
2.34758e-311
4.2069e-311
-9.59702e-312
-6.48577e-312
-1.13949e-311
3.86104e-312
-6.02647e-311
-4.79191e-312
-4.80111e-311
-4.56295e-312
-1.98822e-311
-5.13533e-311
-2.07861e-311
1.10652e-312
1.1837e-311
-4.71252e-311
-5.99572e-313
-3.98245e-311
-8.9603e-311
-6.95097e-311
7.74607e-312
1.166e-311
5.66418e-311
6.80769e-311
1.99093e-310
-4.43447e-310
-3.95515e-310
-3.0262e-310
-1.51343e-310
-1.63861e-310
-1.18815e-310
-7.02096e-311
-9.41354e-311
-1.16774e-310
-9.06301e-311
-1.25333e-312
5.03658e-311
4.13838e-311
6.32543e-311
5.1561e-311
-1.76946e-311
-4.04144e-311
-6.71362e-311
-3.04408e-311
1.77839e-311
5.1605e-311
4.76583e-311
7.96176e-311
5.97854e-311
4.40931e-311
8.27737e-311
8.24493e-311
3.53242e-311
9.38082e-311
-1.1461e-312
7.50745e-312
4.90154e-312
-4.22477e-312
3.70525e-311
1.04087e-310
9.11761e-311
7.70095e-311
5.89703e-311
4.24051e-311
8.91906e-311
1.00563e-310
1.32754e-310
1.13679e-310
8.66613e-311
4.35649e-311
3.05045e-311
1.54871e-311
-4.73313e-312
-3.02477e-311
-9.42497e-311
-8.6445e-311
-2.79709e-312
-3.53643e-311
-4.16459e-311
9.88358e-312
1.00161e-311
4.36961e-311
1.96626e-311
-1.27038e-312
-2.94495e-312
-2.08738e-311
-5.37379e-311
3.85976e-312
-6.4146e-311
-5.16708e-311
-2.89883e-311
7.16554e-312
4.92644e-311
4.59384e-311
2.72119e-311
-9.51391e-312
7.90874e-312
-1.14703e-311
-2.30816e-311
-8.1388e-311
-2.88779e-311
-1.11363e-310
-1.40337e-310
-2.70494e-310
-2.60434e-310
-2.81504e-310
-2.86871e-310
-1.74931e-310
1.14793e-311
1.51712e-311
-9.9714e-311
-4.36364e-311
-5.63914e-311
-7.59755e-311
-1.18913e-310
1.851e-311
5.29758e-311
3.23205e-314
2.69962e-311
6.60869e-311
-1.9411e-312
-5.03036e-312
-3.68528e-311
5.03329e-312
2.3868e-311
3.83735e-311
6.27676e-311
8.15744e-311
9.67958e-311
3.96532e-311
9.54238e-311
9.57737e-311
7.87132e-311
8.97091e-311
3.00066e-311
3.0486e-311
1.51562e-311
1.30599e-311
4.81081e-311
9.18241e-311
1.00999e-310
7.15927e-311
-8.88763e-312
4.61909e-311
1.0619e-310
1.76737e-310
1.63068e-310
1.39979e-310
1.02614e-310
6.28499e-311
9.26443e-312
2.23772e-311
-1.37761e-311
-8.81257e-311
-1.33508e-310
-8.39973e-311
-1.26777e-311
6.01539e-312
-8.48581e-312
-5.89699e-312
-1.47369e-311
1.69901e-311
-2.63762e-311
-3.15243e-311
2.6667e-311
1.43871e-311
-1.79293e-311
1.44972e-311
-1.1498e-310
-5.5857e-311
-4.77548e-311
3.36742e-311
4.13618e-311
9.21374e-311
4.5649e-311
6.01051e-311
-1.89003e-311
-6.986e-311
-5.44381e-313
-7.95801e-311
-1.38202e-310
-2.62378e-310
-3.6117e-310
-4.42987e-310
-4.30506e-310
-8.39699e-311
-7.73266e-311
-1.45911e-311
-2.35873e-311
8.74075e-311
7.83589e-311
2.96807e-311
-2.58818e-311
-1.66394e-311
-3.26115e-311
5.91924e-311
3.97302e-311
-5.38578e-311
-1.31011e-311
6.88778e-311
2.03187e-311
5.67065e-311
-1.94025e-311
3.25262e-312
5.68983e-311
4.4232e-311
1.09835e-310
6.63521e-311
8.9864e-311
8.62322e-311
1.11166e-310
6.6533e-311
3.8018e-311
7.12209e-311
2.44994e-311
3.12108e-311
2.24453e-311
3.04676e-312
9.39441e-311
7.71273e-311
7.3463e-311
5.39223e-311
-8.15653e-312
6.11431e-311
9.10683e-311
1.80194e-310
1.61648e-310
1.38894e-310
1.03649e-310
6.6178e-311
-1.34601e-311
3.03982e-311
3.55218e-312
-7.51641e-311
-1.24685e-310
-1.15584e-310
3.94936e-312
2.3464e-311
3.23909e-312
-1.06814e-311
-3.53131e-311
-3.83168e-311
-6.97403e-311
-6.28599e-311
5.30847e-311
5.97381e-311
8.44749e-312
-2.06065e-311
-1.17441e-310
-8.28974e-311
1.61608e-311
7.00484e-311
3.51919e-311
1.05429e-310
2.50046e-311
1.31974e-311
-6.22037e-311
-1.41993e-310
-9.72986e-311
-1.02855e-310
-1.93524e-310
-2.59727e-310
-3.83868e-310
-3.77416e-310
-1.51288e-310
3.22964e-310
1.82567e-310
1.31553e-310
4.30753e-311
-8.68779e-311
-4.27867e-311
-4.72593e-311
2.01156e-311
4.66664e-312
1.48816e-311
-6.66372e-312
-8.81752e-311
-4.60236e-311
3.44415e-311
2.05198e-311
4.65574e-311
8.84536e-311
2.67324e-311
2.42237e-311
1.78322e-311
6.4404e-312
8.09101e-311
3.12284e-311
3.72066e-311
4.76405e-311
5.9693e-311
8.00627e-311
2.77917e-311
6.39705e-311
5.16802e-311
1.18332e-311
-1.9433e-311
5.86368e-312
8.5108e-311
8.19175e-311
3.31736e-311
6.79175e-311
8.92882e-312
8.27467e-311
5.98108e-311
1.77859e-310
1.7635e-310
1.41253e-310
8.75735e-311
5.59881e-311
-2.27307e-311
2.78441e-311
1.69308e-311
-4.89626e-311
-6.7214e-311
-6.36967e-311
-4.50796e-311
5.88739e-312
2.76678e-311
8.23242e-312
2.23183e-311
-4.57377e-312
-5.42575e-311
-2.09576e-311
5.59928e-311
1.01009e-310
5.63339e-311
2.04294e-311
-6.74987e-311
-7.04087e-311
-3.67684e-313
8.43146e-312
4.81121e-311
9.2203e-311
6.29684e-311
2.40149e-311
-1.54922e-311
-1.17019e-310
-9.33384e-311
-1.12739e-310
-1.35847e-310
-2.41323e-310
-3.06552e-310
-4.37484e-310
-6.28974e-310
-2.91387e-310
-5.80385e-311
1.83081e-310
1.25299e-310
-1.00943e-310
-9.03297e-311
-1.38249e-310
-5.2046e-311
-5.87658e-311
2.32959e-311
-4.9911e-312
-1.69533e-310
-9.37985e-311
1.65788e-312
-2.54783e-311
2.52076e-311
2.95879e-311
-3.7073e-312
1.5804e-311
-4.62592e-313
1.80786e-311
1.03718e-310
7.73951e-311
3.26151e-311
-6.41162e-312
5.60279e-311
1.24497e-310
2.20791e-311
5.24548e-311
5.05019e-311
-2.59701e-312
-1.9871e-311
-1.40148e-311
7.57528e-311
6.96723e-311
2.99967e-311
1.10032e-310
2.13614e-311
9.82908e-311
1.10828e-310
1.65341e-310
2.21642e-310
1.19677e-310
6.43122e-311
5.9081e-311
2.47491e-311
1.42833e-311
-8.84215e-313
-2.59265e-311
-4.91082e-311
-5.52744e-311
-5.30282e-311
-1.21348e-311
3.38014e-311
2.44987e-311
-4.8279e-312
-9.83775e-312
-2.10702e-311
3.96283e-312
6.43117e-311
1.21689e-310
1.08988e-310
1.12878e-311
-2.63207e-311
-5.71803e-311
-5.45046e-312
4.76743e-311
1.02541e-310
7.25892e-311
1.47208e-310
1.19272e-310
1.56513e-311
-9.09599e-311
2.32853e-311
-1.76001e-311
-6.19314e-311
-2.44938e-310
-3.5537e-310
-6.39156e-310
-7.71254e-310
-3.47514e-310
-3.03057e-310
-5.39541e-311
2.07239e-311
-1.1654e-310
-5.84654e-311
-2.99727e-311
-6.58493e-311
-2.85838e-311
-3.89533e-311
-6.71718e-312
-1.83705e-310
-1.03547e-310
-4.09685e-312
-1.82513e-311
6.92952e-312
-1.82801e-311
-7.1429e-311
3.94072e-311
9.08627e-312
2.34983e-311
9.99347e-311
1.15657e-310
9.8606e-311
7.10791e-311
4.76534e-311
9.22057e-311
2.17916e-311
2.23378e-311
2.0515e-312
-3.97933e-311
-2.04839e-311
-2.20506e-311
4.90949e-311
7.80315e-311
3.56425e-311
1.44892e-310
5.50666e-311
9.21688e-311
1.22549e-310
1.45906e-310
1.82391e-310
1.31388e-310
5.02586e-311
7.72359e-311
4.42376e-311
1.97761e-312
-1.93821e-311
-2.0904e-311
-3.80964e-311
-3.11395e-311
-6.14949e-311
-1.71813e-311
2.44293e-311
5.65702e-312
8.04652e-312
-3.27419e-311
-2.77427e-311
1.94399e-311
1.14052e-310
1.32753e-310
1.14212e-310
-3.57638e-312
-5.37343e-311
-6.35125e-311
-4.61442e-311
5.34387e-311
8.20252e-311
2.33551e-311
1.05573e-310
7.8741e-311
-8.8474e-311
-1.33384e-310
-1.26806e-310
-4.76223e-311
-1.02061e-310
-2.08019e-310
-2.126e-310
-4.13694e-310
-4.13315e-310
-5.76809e-310
-6.49282e-310
-4.35519e-310
-1.97582e-310
-1.31074e-310
-8.58051e-311
1.86033e-312
-5.6679e-311
-4.2543e-311
1.80092e-311
5.27387e-312
-1.27078e-310
-1.10757e-310
-8.54403e-311
-5.90415e-311
-6.04256e-311
-1.3786e-311
-6.59505e-311
2.75554e-311
-2.22493e-311
-3.83865e-311
6.35928e-311
1.02863e-310
1.0321e-310
9.95735e-311
7.38255e-311
9.93277e-311
6.75882e-312
-3.12981e-311
-4.03326e-311
-1.85791e-311
-6.26377e-311
-2.19035e-311
3.21813e-311
7.50424e-311
-5.3774e-313
6.23909e-311
2.07063e-311
9.10858e-311
1.4065e-310
1.37672e-310
1.85102e-310
1.40175e-310
7.39515e-311
9.58746e-311
5.05111e-311
5.24377e-312
-3.50614e-312
-1.39706e-311
-1.9945e-311
-3.61197e-311
-4.07001e-313
-8.52369e-312
3.28771e-311
6.13652e-311
7.18613e-312
-2.26713e-314
-3.47519e-311
-2.30942e-311
5.70197e-311
4.03981e-311
4.89587e-311
-4.27633e-311
-2.03945e-311
-8.47129e-311
-5.97243e-311
2.74422e-311
1.00627e-310
3.21402e-311
9.14563e-311
9.56956e-311
-3.53819e-311
-9.87686e-311
-7.03626e-311
-9.69959e-313
-7.20903e-311
-8.31233e-311
-2.99091e-310
-4.29972e-310
-5.01723e-310
-4.45261e-310
-5.07685e-310
-5.10111e-310
-2.00843e-310
-1.01538e-310
-5.52119e-311
-1.00616e-310
-1.12299e-310
-1.08491e-310
-9.48256e-311
-6.90542e-311
-1.1642e-310
-9.07277e-311
-1.73335e-310
-8.60341e-311
-1.34617e-310
-9.12034e-311
-2.57737e-311
-1.763e-311
2.89648e-311
-2.04519e-311
9.44358e-311
8.01692e-311
6.21684e-311
1.06149e-310
8.15736e-311
7.56512e-311
-1.8634e-311
-2.55296e-311
-3.24535e-312
-8.1324e-311
-9.5945e-311
-3.73153e-311
3.94861e-311
3.50584e-311
-3.90801e-311
-2.75935e-311
1.75324e-311
6.94718e-311
8.84573e-311
1.0344e-310
1.99369e-310
1.40383e-310
1.13336e-310
9.68137e-311
4.04978e-311
6.27621e-312
-1.86629e-312
2.44915e-312
-3.18173e-311
-5.12597e-311
-3.94898e-311
-8.51419e-312
5.10035e-311
6.06672e-311
4.91037e-311
7.27891e-312
-5.58814e-311
-3.34537e-311
5.86412e-312
1.05315e-311
9.59395e-312
-2.72535e-311
-8.09111e-311
-9.2451e-311
-3.73384e-311
1.12093e-311
9.33566e-311
2.22315e-311
7.56702e-311
7.31873e-311
6.9475e-311
-2.02611e-311
-6.93016e-311
2.60785e-311
-7.15445e-312
-8.83009e-311
-3.78979e-310
-4.90832e-310
-5.22703e-310
-1.11323e-310
-2.22459e-310
-1.8733e-310
-8.73835e-311
-2.83738e-311
-6.65722e-311
-1.13175e-310
-5.68947e-311
-6.65961e-311
-7.38494e-311
-7.88469e-311
-9.8383e-311
-9.60443e-311
-2.02817e-310
-9.87817e-311
-9.77527e-311
-1.02891e-310
-8.16745e-311
-8.39007e-311
-3.37855e-311
1.74212e-312
1.09938e-310
7.1304e-311
5.26992e-311
1.175e-310
1.10781e-310
3.18792e-311
8.47607e-312
2.15156e-312
2.32026e-311
-9.81259e-311
-1.12309e-310
-4.61863e-311
2.82868e-311
1.57134e-311
-7.5946e-311
-6.72567e-311
-6.46019e-312
5.13916e-311
8.91969e-311
8.26254e-311
1.8423e-310
1.34292e-310
1.2928e-310
1.29104e-310
5.48697e-311
5.53215e-312
-3.17958e-312
6.79717e-312
-2.53912e-311
-3.31905e-311
-7.58548e-311
-4.05915e-311
5.49105e-311
1.0641e-310
6.0511e-311
3.52711e-311
-2.80957e-311
3.00465e-311
7.66033e-312
2.03037e-311
1.40679e-311
-1.02897e-311
-6.25612e-311
-3.1799e-314
-1.67659e-311
2.57144e-311
1.75359e-311
6.51905e-311
1.05439e-310
1.04953e-310
7.29709e-311
6.99713e-311
2.27895e-311
1.58472e-310
9.11869e-311
1.00981e-310
-8.10647e-311
-2.03469e-310
-2.56088e-310
-1.35182e-310
-8.60087e-311
-1.98066e-310
7.3152e-312
4.73335e-311
-4.9324e-311
-9.51769e-311
-8.52603e-311
-1.33249e-310
-1.19116e-310
-4.31927e-311
-9.99611e-311
-1.25835e-310
-2.05386e-310
-1.72224e-310
-7.3831e-311
-3.9272e-311
-5.15753e-311
-5.13213e-311
-6.56275e-311
1.13429e-311
1.011e-310
7.10064e-311
3.39734e-311
1.08132e-310
8.01973e-311
3.33858e-311
2.09857e-311
2.74538e-311
8.50874e-312
-9.34311e-311
-1.15248e-310
-8.97515e-311
-2.03138e-311
-2.27681e-311
-6.09754e-311
-8.38567e-311
9.54872e-312
3.03655e-311
5.53771e-311
1.32904e-310
1.73756e-310
2.0014e-310
1.48194e-310
1.05567e-310
3.86115e-311
-1.24928e-311
-3.65791e-311
3.99163e-312
-1.79047e-311
-8.39682e-311
-7.53991e-311
-6.08174e-311
5.54317e-311
1.21151e-310
1.1172e-310
5.50326e-311
2.81037e-311
4.50434e-311
-1.84108e-311
2.47107e-311
3.28939e-311
5.7413e-311
-4.49064e-311
-3.18688e-311
-3.25314e-311
-1.08855e-312
5.90684e-312
6.39066e-311
1.50996e-310
7.80133e-311
6.87502e-311
8.39478e-311
1.40761e-310
1.63857e-310
9.55477e-311
7.4994e-311
-7.40469e-311
-7.7296e-311
-5.15606e-311
-1.90325e-310
-3.61621e-311
-4.95993e-311
6.64881e-311
8.61875e-311
-4.30541e-312
-1.04793e-310
-1.32616e-310
-1.65785e-310
-8.24524e-311
-3.17657e-311
-4.24325e-311
-1.39519e-310
-2.01718e-310
-1.95224e-310
-1.52446e-310
-6.98753e-311
-1.02949e-311
-1.54528e-311
-3.60515e-311
5.81161e-312
1.08571e-310
1.04499e-310
7.90616e-311
1.05369e-310
8.89384e-311
1.02884e-310
4.78809e-311
2.76103e-311
-6.73565e-312
-1.14901e-310
-1.17204e-310
-1.13599e-310
-4.14604e-311
7.86346e-312
-4.65323e-311
-5.13996e-311
1.43567e-311
2.59975e-311
8.25304e-311
1.29282e-310
1.30639e-310
1.93973e-310
1.67892e-310
1.28391e-310
7.55966e-311
2.6347e-312
-4.56932e-311
-5.7788e-312
1.00834e-311
-7.16481e-311
-4.84636e-311
-6.2209e-311
4.35186e-311
1.15393e-310
1.63097e-310
8.17664e-311
6.08295e-311
5.97611e-311
-4.6683e-311
-4.59819e-311
7.28357e-311
1.47787e-311
-9.84074e-311
-5.76725e-311
3.14845e-312
-1.07048e-311
2.8596e-311
4.76152e-311
1.07902e-310
1.19085e-310
5.7975e-311
8.76226e-311
1.20807e-310
1.75279e-310
1.0575e-310
1.97261e-310
1.5342e-310
4.54052e-311
1.23537e-310
-2.73493e-311
-2.84076e-311
-9.60146e-312
-8.96667e-312
1.20662e-311
-3.95622e-311
-1.56632e-311
-1.57682e-310
-1.73867e-310
-1.06574e-310
-1.22002e-311
-2.01267e-311
-1.2176e-310
-1.33383e-310
-1.78081e-310
-1.43204e-310
-1.20238e-310
-1.62553e-311
9.42826e-312
-8.1608e-311
-2.6598e-311
1.069e-310
1.03711e-310
1.15753e-310
7.69536e-311
1.41022e-310
1.51687e-310
7.79661e-311
2.56089e-311
-3.5445e-311
-1.16346e-310
-1.36244e-310
-1.27398e-310
-1.12614e-310
-3.1748e-312
-7.81495e-311
-4.9395e-311
-3.41169e-311
1.89154e-311
7.04196e-311
8.64567e-311
1.26505e-310
1.87669e-310
1.59005e-310
2.14783e-310
1.42397e-310
3.4568e-311
-3.40562e-311
-3.00355e-311
-6.81275e-312
-2.08351e-312
-3.3132e-311
-4.20743e-311
1.018e-310
1.36854e-310
1.2049e-310
1.02258e-310
7.52889e-311
5.65297e-311
-2.55131e-311
-1.60851e-311
7.80447e-311
1.30635e-312
-5.27034e-311
-7.28935e-311
6.76133e-312
5.97706e-312
-6.09624e-311
-5.12091e-311
7.25674e-311
1.26935e-310
8.00929e-311
1.52075e-310
1.53844e-310
1.76195e-310
1.78268e-310
2.48833e-310
2.12152e-310
5.25653e-311
-6.85281e-311
5.49752e-311
4.24908e-311
-9.1929e-311
-3.75846e-311
6.49312e-311
1.59296e-310
1.0592e-310
6.28305e-312
-8.65059e-311
-8.67656e-311
-3.39118e-311
-8.34333e-311
-8.81753e-311
-1.84503e-310
-1.96722e-310
-1.22934e-310
-9.5442e-311
-1.42199e-311
-1.18169e-311
-3.88019e-311
-4.7277e-311
8.4484e-311
7.22032e-311
9.88374e-311
9.98589e-311
1.26855e-310
1.53281e-310
9.88479e-311
2.13222e-311
-5.7857e-311
-1.33703e-310
-1.68317e-310
-1.54573e-310
-1.55446e-310
-4.01186e-311
-5.20128e-311
-4.40192e-311
-5.07772e-311
2.65839e-312
-2.93564e-312
3.79512e-311
1.40508e-310
1.4291e-310
1.8357e-310
1.91541e-310
1.51549e-310
3.50649e-311
-5.17605e-311
-2.38593e-311
4.51542e-311
3.76398e-311
-1.13949e-311
-3.14636e-311
9.56258e-311
1.26313e-310
9.35098e-311
4.1571e-311
8.5614e-311
5.8433e-311
-9.30094e-311
-4.79059e-311
7.45299e-311
8.94804e-312
-7.3035e-311
-1.1702e-310
4.69026e-312
2.47325e-312
-6.24824e-311
7.19505e-313
1.34224e-310
1.5815e-310
8.12729e-311
1.15048e-310
1.66813e-310
1.97482e-310
1.46105e-310
1.01039e-310
6.29191e-312
-1.79172e-310
-2.33212e-310
2.49939e-311
9.43378e-311
3.27274e-311
3.35628e-311
1.05019e-310
1.09043e-310
6.8922e-311
1.64745e-311
-9.57388e-311
-4.56149e-311
-1.2441e-310
-8.84605e-311
-6.64525e-311
-2.23581e-310
-1.59955e-310
-1.71709e-310
-9.63669e-311
-7.79637e-311
-5.12404e-311
-8.89263e-311
3.32178e-312
9.38124e-311
8.2743e-311
7.94481e-311
1.30605e-310
1.50091e-310
1.51973e-310
1.0778e-310
6.19836e-312
-8.32153e-311
-1.34205e-310
-1.66041e-310
-1.57724e-310
-1.76335e-310
-5.4682e-311
-2.73441e-311
-4.11727e-311
1.30439e-312
-2.96059e-311
3.30967e-311
5.85366e-311
1.51828e-310
1.67258e-310
2.20807e-310
2.07628e-310
1.34468e-310
-1.73903e-311
-3.8048e-311
-3.35537e-311
7.34573e-311
6.26129e-311
1.98484e-311
-7.02502e-312
8.64857e-311
1.21327e-310
9.21388e-311
3.14426e-311
7.52645e-311
3.83355e-311
-4.08103e-311
-1.2314e-310
2.78268e-311
-3.50817e-311
-8.16475e-311
-1.15675e-310
2.17462e-311
6.70188e-311
-9.95882e-312
6.00996e-311
7.6601e-311
1.5604e-310
7.49858e-311
3.69504e-311
1.64255e-310
1.3724e-310
2.11094e-310
5.09123e-311
-1.70724e-311
-4.63196e-311
-1.96347e-310
2.64464e-310
2.68049e-310
2.15895e-310
1.25973e-310
7.88519e-311
1.06665e-310
7.76015e-311
2.63891e-311
-1.35386e-310
-8.73271e-311
-1.42224e-310
-5.88302e-311
-6.82247e-311
-1.93561e-310
-1.69868e-310
-1.71886e-310
-5.85191e-311
-1.00412e-310
-1.93381e-311
-5.79364e-311
-4.15273e-312
9.90378e-311
1.38154e-310
9.81187e-311
1.7701e-310
2.02444e-310
2.01418e-310
1.17679e-310
-5.75148e-312
-9.42403e-311
-1.72533e-310
-1.90523e-310
-2.15738e-310
-2.1074e-310
-9.06153e-311
-2.91444e-311
-1.16235e-310
-3.8505e-311
-5.29165e-311
4.83899e-311
8.13138e-311
1.6092e-310
1.37568e-310
2.02997e-310
2.36627e-310
1.30698e-310
1.4663e-311
-2.54033e-311
-4.26659e-311
5.04479e-311
7.2249e-311
6.54878e-312
1.24135e-311
1.29111e-310
1.26337e-310
1.63212e-310
3.32922e-311
6.39381e-311
3.5102e-311
-1.36167e-311
-1.07929e-310
-4.69337e-311
-4.70472e-311
-3.03072e-311
-4.59517e-311
-1.12401e-311
2.74871e-311
-3.30662e-311
2.2166e-311
5.69087e-311
1.16819e-311
-2.35239e-312
5.45203e-311
1.87887e-310
2.29114e-310
1.97938e-310
3.33841e-310
3.32898e-310
5.39566e-310
4.9372e-310
8.10915e-311
2.43693e-310
2.89976e-310
1.71294e-310
1.49494e-310
1.66406e-310
1.53157e-310
6.2615e-312
-5.73812e-311
-6.43242e-311
-1.50881e-310
-6.32709e-311
-1.50737e-310
-1.88093e-310
-1.41427e-310
-2.23844e-310
-1.47515e-310
-1.14986e-310
2.75461e-311
-2.07205e-311
-3.69174e-311
4.86473e-311
8.63256e-311
7.11775e-311
2.18291e-310
2.35486e-310
2.466e-310
1.31909e-310
-1.58478e-311
-1.04059e-310
-1.71734e-310
-2.0492e-310
-2.70153e-310
-1.85384e-310
-1.29397e-310
7.40332e-312
-8.89612e-311
-4.05123e-311
-3.59588e-311
-1.07314e-311
3.73575e-311
1.27392e-310
1.35948e-310
1.50912e-310
2.53208e-310
1.08034e-310
6.92415e-311
-2.82243e-311
-2.20488e-311
6.09734e-311
9.752e-311
3.00442e-311
1.196e-311
1.07173e-310
1.6363e-310
1.56111e-310
3.29244e-311
1.01619e-310
1.41259e-311
1.4886e-311
-5.82246e-311
-6.15201e-311
-3.62721e-311
3.66041e-312
4.23071e-312
2.44151e-311
4.71573e-311
-1.06595e-311
3.56567e-311
3.74858e-311
2.67219e-311
2.36704e-311
7.58501e-311
1.29832e-310
1.75506e-310
1.2274e-310
2.56832e-310
4.37366e-310
5.16695e-310
6.73369e-310
2.15002e-310
3.44657e-310
4.14216e-310
1.61042e-310
1.34671e-310
1.71187e-310
1.59346e-310
1.56806e-310
6.6369e-311
-2.18291e-311
-5.87824e-311
2.96243e-312
-1.43091e-310
-1.28684e-310
-2.04725e-310
-2.57789e-310
-1.84682e-310
-9.52474e-311
1.05927e-311
3.00133e-312
-2.72556e-311
1.18345e-311
3.76346e-311
3.81106e-311
1.9256e-310
2.1942e-310
2.36085e-310
1.08344e-310
-2.78095e-311
-9.609e-311
-1.57487e-310
-2.10992e-310
-2.66265e-310
-1.91034e-310
-1.37124e-310
-1.0984e-311
-4.51786e-311
-5.85199e-311
-1.65997e-311
-1.60171e-311
2.66954e-311
1.11337e-310