/*--------------------------------*- C++ -*----------------------------------*\
  =========                 |
  \\      /  F ield         | OpenFOAM: The Open Source CFD Toolbox
   \\    /   O peration     | Website:  https://openfoam.org
    \\  /    A nd           | Version:  11
     \\/     M anipulation  |
\*---------------------------------------------------------------------------*/
FoamFile
{
    format      ascii;
    class       volScalarField;
    location    "20";
    object      C;
}
// * * * * * * * * * * * * * * * * * * * * * * * * * * * * * * * * * * * * * //

dimensions      [0 0 0 1 0 0 0];

internalField   nonuniform List<scalar> 
503040
(
4.16016e-81
4.0916e-81
3.9754e-81
3.82551e-81
3.65207e-81
3.46288e-81
3.2641e-81
3.06068e-81
2.85658e-81
2.655e-81
2.4584e-81
2.26869e-81
2.0873e-81
1.91523e-81
1.75312e-81
1.60135e-81
1.46004e-81
1.32914e-81
1.20843e-81
1.0976e-81
9.96245e-82
9.039e-82
8.20067e-82
7.4423e-82
6.75862e-82
6.14448e-82
5.59483e-82
5.10487e-82
4.67006e-82
4.28616e-82
3.94927e-82
3.65583e-82
3.40264e-82
3.18686e-82
3.00603e-82
2.85801e-82
2.74105e-82
2.65373e-82
2.59501e-82
2.56414e-82
2.56075e-82
2.58481e-82
2.63659e-82
2.71673e-82
2.8262e-82
2.96633e-82
3.13876e-82
3.34552e-82
3.58897e-82
3.87183e-82
4.19719e-82
4.56847e-82
4.98945e-82
5.46421e-82
5.99717e-82
6.59296e-82
7.25647e-82
7.99272e-82
8.80678e-82
9.70368e-82
1.06883e-81
1.1765e-81
1.29379e-81
1.42099e-81
1.55831e-81
1.70581e-81
1.86336e-81
2.03061e-81
2.20691e-81
2.39131e-81
2.58241e-81
2.77836e-81
2.97676e-81
3.17451e-81
3.36775e-81
3.55167e-81
3.72028e-81
3.86601e-81
3.97898e-81
4.04564e-81
1.28117e-80
1.26529e-80
1.23672e-80
1.1982e-80
1.15206e-80
1.10031e-80
1.04466e-80
9.86563e-81
9.27246e-81
8.67732e-81
8.0886e-81
7.51309e-81
6.95613e-81
6.42181e-81
5.91312e-81
5.43214e-81
4.98014e-81
4.55772e-81
4.16496e-81
3.80149e-81
3.46661e-81
3.15935e-81
2.87855e-81
2.62293e-81
2.39111e-81
2.18171e-81
1.99332e-81
1.82456e-81
1.67412e-81
1.54073e-81
1.42322e-81
1.32051e-81
1.2316e-81
1.15562e-81
1.09178e-81
1.03941e-81
9.97953e-82
9.66958e-82
9.46081e-82
9.35089e-82
9.33858e-82
9.42372e-82
9.60726e-82
9.89121e-82
1.02787e-81
1.07739e-81
1.13821e-81
1.21096e-81
1.2964e-81
1.39536e-81
1.50879e-81
1.63775e-81
1.78335e-81
1.94683e-81
2.12945e-81
2.33255e-81
2.55748e-81
2.80559e-81
3.07822e-81
3.3766e-81
3.70187e-81
4.05494e-81
4.43652e-81
4.84695e-81
5.28616e-81
5.75356e-81
6.24791e-81
6.7672e-81
7.3085e-81
7.86786e-81
8.44007e-81
9.01854e-81
9.59511e-81
1.01598e-80
1.07008e-80
1.12038e-80
1.16524e-80
1.20268e-80
1.23046e-80
1.24589e-80
2.21462e-80
2.19107e-80
2.1478e-80
2.08837e-80
2.01604e-80
1.93375e-80
1.84413e-80
1.74949e-80
1.65184e-80
1.5529e-80
1.45414e-80
1.35676e-80
1.26177e-80
1.16993e-80
1.08187e-80
9.98029e-81
9.18719e-81
8.44134e-81
7.74369e-81
7.09437e-81
6.49283e-81
5.93802e-81
5.42847e-81
4.9624e-81
4.53784e-81
4.15269e-81
3.80479e-81
3.49198e-81
3.21212e-81
2.96318e-81
2.74321e-81
2.5504e-81
2.38308e-81
2.23976e-81
2.11911e-81
2.01997e-81
1.94137e-81
1.88253e-81
1.84286e-81
1.82193e-81
1.81954e-81
1.83566e-81
1.87046e-81
1.92427e-81
1.99764e-81
2.09129e-81
2.20615e-81
2.34328e-81
2.50397e-81
2.68965e-81
2.9019e-81
3.14249e-81
3.41326e-81
3.7162e-81
4.05336e-81
4.42683e-81
4.83871e-81
5.29101e-81
5.78566e-81
6.32437e-81
6.90855e-81
7.53924e-81
8.21695e-81
8.94156e-81
9.71214e-81
1.05268e-80
1.13825e-80
1.2275e-80
1.31982e-80
1.41445e-80
1.51044e-80
1.6066e-80
1.70151e-80
1.7935e-80
1.88061e-80
1.96059e-80
2.0309e-80
2.08867e-80
2.13073e-80
2.15363e-80
3.24664e-80
3.21561e-80
3.15799e-80
3.07805e-80
2.97984e-80
2.86711e-80
2.7433e-80
2.61152e-80
2.47452e-80
2.33472e-80
2.19421e-80
2.05478e-80
1.91789e-80
1.78477e-80
1.65637e-80
1.53344e-80
1.41652e-80
1.30601e-80
1.20211e-80
1.10495e-80
1.01452e-80
9.30737e-81
8.53461e-81
7.82491e-81
7.17588e-81
6.58491e-81
6.04921e-81
5.56592e-81
5.13219e-81
4.74525e-81
4.4024e-81
4.10114e-81
3.83912e-81
3.61423e-81
3.42456e-81
3.26846e-81
3.14453e-81
3.05165e-81
2.98895e-81
2.95583e-81
2.95198e-81
2.97736e-81
3.03219e-81
3.11698e-81
3.23252e-81
3.37983e-81
3.56023e-81
3.77528e-81
4.02678e-81
4.31675e-81
4.64743e-81
5.02125e-81
5.44076e-81
5.90867e-81
6.42771e-81
7.00064e-81
7.63015e-81
8.31877e-81
9.0688e-81
9.88215e-81
1.07603e-80
1.17039e-80
1.2713e-80
1.37866e-80
1.49225e-80
1.61168e-80
1.73644e-80
1.8658e-80
1.99881e-80
2.13432e-80
2.27086e-80
2.40673e-80
2.53987e-80
2.66795e-80
2.78829e-80
2.89785e-80
2.99331e-80
3.07101e-80
3.12702e-80
3.15718e-80
4.40695e-80
4.36806e-80
4.2954e-80
4.19398e-80
4.06862e-80
3.92388e-80
3.764e-80
3.59287e-80
3.41399e-80
3.2305e-80
3.04512e-80
2.86023e-80
2.67782e-80
2.49958e-80
2.32686e-80
2.16075e-80
2.00207e-80
1.85141e-80
1.7092e-80
1.57565e-80
1.45087e-80
1.33482e-80
1.22739e-80
1.12837e-80
1.03751e-80
9.54504e-81
8.79027e-81
8.10734e-81
7.49275e-81
6.943e-81
6.45473e-81
6.02471e-81
5.64995e-81
5.32769e-81
5.05545e-81
4.83108e-81
4.65273e-81
4.51892e-81
4.42848e-81
4.38065e-81
4.37499e-81
4.41143e-81
4.4903e-81
4.61224e-81
4.77829e-81
4.98982e-81
5.24854e-81
5.55648e-81
5.91598e-81
6.32968e-81
6.80043e-81
7.33131e-81
7.92558e-81
8.58658e-81
9.31768e-81
1.01222e-80
1.10033e-80
1.19639e-80
1.30065e-80
1.41329e-80
1.53444e-80
1.66412e-80
1.80224e-80
1.94857e-80
2.10272e-80
2.26409e-80
2.4319e-80
2.60508e-80
2.78231e-80
2.96197e-80
3.14211e-80
3.32043e-80
3.49425e-80
3.66056e-80
3.81594e-80
3.95661e-80
4.07844e-80
4.17702e-80
4.24764e-80
4.28543e-80
5.72699e-80
5.67948e-80
5.59035e-80
5.46545e-80
5.31046e-80
5.13079e-80
4.93153e-80
4.71739e-80
4.49267e-80
4.26124e-80
4.02651e-80
3.79149e-80
3.55875e-80
3.33045e-80
3.1084e-80
2.89406e-80
2.68857e-80
2.49278e-80
2.3073e-80
2.13254e-80
1.96871e-80
1.81585e-80
1.67388e-80
1.54264e-80
1.42185e-80
1.3112e-80
1.2103e-80
1.11877e-80
1.0362e-80
9.62168e-81
8.96274e-81
8.38125e-81
7.87356e-81
7.43626e-81
7.0663e-81
6.76099e-81
6.51804e-81
6.33556e-81
6.21212e-81
6.14673e-81
6.13884e-81
6.18839e-81
6.29574e-81
6.46173e-81
6.68764e-81
6.97517e-81
7.32646e-81
7.74403e-81
8.23077e-81
8.7899e-81
9.42492e-81
1.01396e-80
1.09377e-80
1.18233e-80
1.28004e-80
1.38727e-80
1.50437e-80
1.63167e-80
1.76941e-80
1.91777e-80
2.07681e-80
2.24649e-80
2.42659e-80
2.61674e-80
2.81634e-80
3.02455e-80
3.24026e-80
3.46205e-80
3.68817e-80
3.91652e-80
4.14459e-80
4.36947e-80
4.58783e-80
4.79592e-80
4.98955e-80
5.16415e-80
5.31478e-80
5.43616e-80
5.52277e-80
5.56895e-80
7.24142e-80
7.1842e-80
7.07657e-80
6.92535e-80
6.73717e-80
6.51843e-80
6.27514e-80
6.01292e-80
5.73695e-80
5.45189e-80
5.16192e-80
4.87072e-80
4.58147e-80
4.29691e-80
4.01932e-80
3.75057e-80
3.49215e-80
3.24522e-80
3.01063e-80
2.78896e-80
2.58057e-80
2.38561e-80
2.20406e-80
2.03578e-80
1.88052e-80
1.73793e-80
1.60761e-80
1.48912e-80
1.382e-80
1.28577e-80
1.19995e-80
1.12408e-80
1.05774e-80
1.00051e-80
9.52027e-81
9.11971e-81
8.80064e-81
8.56077e-81
8.39836e-81
8.3122e-81
8.30163e-81
8.36655e-81
8.5074e-81
8.7252e-81
9.02149e-81
9.39833e-81
9.85829e-81
1.04044e-80
1.10401e-80
1.17692e-80
1.25959e-80
1.35245e-80
1.45596e-80
1.57057e-80
1.69673e-80
1.83487e-80
1.98537e-80
2.14856e-80
2.32467e-80
2.51386e-80
2.71612e-80
2.93132e-80
3.15909e-80
3.39887e-80
3.64984e-80
3.91088e-80
4.18051e-80
4.45694e-80
4.73793e-80
5.02083e-80
5.30255e-80
5.57952e-80
5.84766e-80
6.10244e-80
6.33883e-80
6.55139e-80
6.73425e-80
6.8812e-80
6.98578e-80
7.04139e-80
8.98939e-80
8.92105e-80
8.79231e-80
8.61109e-80
8.38514e-80
8.12196e-80
7.82865e-80
7.51187e-80
7.17773e-80
6.83183e-80
6.47917e-80
6.12421e-80
5.77082e-80
5.42234e-80
5.08159e-80
4.75092e-80
4.4322e-80
4.12694e-80
3.83625e-80
3.56093e-80
3.3015e-80
3.05823e-80
2.83119e-80
2.62028e-80
2.42527e-80
2.2458e-80
2.08144e-80
1.93172e-80
1.79611e-80
1.67407e-80
1.56505e-80
1.46853e-80
1.38401e-80
1.311e-80
1.24908e-80
1.19787e-80
1.15704e-80
1.12632e-80
1.10551e-80
1.09445e-80
1.09307e-80
1.10135e-80
1.11936e-80
1.1472e-80
1.18507e-80
1.2332e-80
1.29189e-80
1.36151e-80
1.44245e-80
1.53516e-80
1.64013e-80
1.75785e-80
1.88884e-80
2.03362e-80
2.1927e-80
2.36652e-80
2.55551e-80
2.76e-80
2.9802e-80
3.21622e-80
3.46799e-80
3.73522e-80
4.01743e-80
4.31382e-80
4.62331e-80
4.94445e-80
5.27539e-80
5.61387e-80
5.95714e-80
6.30196e-80
6.64454e-80
6.98059e-80
7.30521e-80
7.61299e-80
7.89796e-80
8.15367e-80
8.37321e-80
8.5493e-80
8.67439e-80
8.74079e-80
1.10157e-79
1.09346e-79
1.07815e-79
1.05657e-79
1.02963e-79
9.9821e-80
9.63136e-80
9.25196e-80
8.85113e-80
8.4355e-80
8.01103e-80
7.58303e-80
7.15617e-80
6.73446e-80
6.32135e-80
5.9197e-80
5.53184e-80
5.15964e-80
4.80453e-80
4.46755e-80
4.14942e-80
3.85054e-80
3.57107e-80
3.31099e-80
3.07007e-80
2.84796e-80
2.64421e-80
2.45829e-80
2.28963e-80
2.13761e-80
2.00163e-80
1.88108e-80
1.77538e-80
1.68398e-80
1.60638e-80
1.54215e-80
1.49089e-80
1.4523e-80
1.42613e-80
1.4122e-80
1.41044e-80
1.42081e-80
1.44339e-80
1.47831e-80
1.52578e-80
1.58609e-80
1.65959e-80
1.74669e-80
1.84785e-80
1.96359e-80
2.09446e-80
2.24104e-80
2.4039e-80
2.58363e-80
2.78078e-80
2.99585e-80
3.22928e-80
3.48139e-80
3.75239e-80
4.04232e-80
4.351e-80
4.67804e-80
5.02273e-80
5.38407e-80
5.76066e-80
6.15068e-80
6.55186e-80
6.96141e-80
7.37601e-80
7.79173e-80
8.20404e-80
8.60778e-80
8.99715e-80
9.36573e-80
9.70646e-80
1.00117e-79
1.02735e-79
1.04831e-79
1.06319e-79
1.07107e-79
1.33723e-79
1.32763e-79
1.30949e-79
1.28391e-79
1.25194e-79
1.21461e-79
1.1729e-79
1.12772e-79
1.07994e-79
1.03033e-79
9.79596e-80
9.28373e-80
8.77215e-80
8.26603e-80
7.7695e-80
7.28602e-80
6.81845e-80
6.36906e-80
5.93964e-80
5.53152e-80
5.14561e-80
4.7825e-80
4.44245e-80
4.1255e-80
3.83145e-80
3.55997e-80
3.31057e-80
3.08268e-80
2.87566e-80
2.68883e-80
2.52151e-80
2.373e-80
2.24265e-80
2.12983e-80
2.03396e-80
1.95454e-80
1.89112e-80
1.84334e-80
1.81091e-80
1.79364e-80
1.79142e-80
1.80422e-80
1.83212e-80
1.87529e-80
1.93395e-80
2.00845e-80
2.09918e-80
2.20661e-80
2.33129e-80
2.4738e-80
2.63477e-80
2.81485e-80
3.01468e-80
3.23493e-80
3.47618e-80
3.739e-80
4.02384e-80
4.33101e-80
4.6607e-80
5.01288e-80
5.38726e-80
5.78328e-80
6.20004e-80
6.63626e-80
7.09019e-80
7.5596e-80
8.04173e-80
8.53321e-80
9.03004e-80
9.52751e-80
1.00203e-79
1.05021e-79
1.09663e-79
1.14051e-79
1.18103e-79
1.21729e-79
1.24835e-79
1.2732e-79
1.29082e-79
1.30015e-79
1.61193e-79
1.6006e-79
1.57918e-79
1.54893e-79
1.51111e-79
1.46691e-79
1.41749e-79
1.36391e-79
1.30719e-79
1.24824e-79
1.18791e-79
1.12692e-79
1.06595e-79
1.00556e-79
9.46245e-80
8.88424e-80
8.32436e-80
7.78561e-80
7.27016e-80
6.77965e-80
6.31525e-80
5.87773e-80
5.46748e-80
5.08461e-80
4.72896e-80
4.4002e-80
4.09782e-80
3.82119e-80
3.56961e-80
3.34233e-80
3.13857e-80
2.95754e-80
2.7985e-80
2.66074e-80
2.5436e-80
2.44648e-80
2.36888e-80
2.31038e-80
2.27065e-80
2.24947e-80
2.2467e-80
2.26233e-80
2.29643e-80
2.34918e-80
2.42088e-80
2.51189e-80
2.62267e-80
2.75378e-80
2.90581e-80
3.07945e-80
3.27539e-80
3.49438e-80
3.73715e-80
4.00441e-80
4.29685e-80
4.61504e-80
4.95947e-80
5.33046e-80
5.72814e-80
6.15241e-80
6.60286e-80
7.07876e-80
7.57895e-80
8.10184e-80
8.6453e-80
9.20663e-80
9.78249e-80
1.03688e-79
1.09609e-79
1.15531e-79
1.21391e-79
1.27116e-79
1.32625e-79
1.37828e-79
1.42629e-79
1.46922e-79
1.50596e-79
1.53534e-79
1.55614e-79
1.56716e-79
1.93271e-79
1.91934e-79
1.89408e-79
1.8584e-79
1.81375e-79
1.76155e-79
1.70313e-79
1.63977e-79
1.57265e-79
1.50283e-79
1.43132e-79
1.35898e-79
1.2866e-79
1.21484e-79
1.14431e-79
1.07548e-79
1.00877e-79
9.44515e-80
8.82978e-80
8.24359e-80
7.68804e-80
7.1641e-80
6.67231e-80
6.21285e-80
5.78564e-80
5.39032e-80
5.02635e-80
4.69305e-80
4.38966e-80
4.11531e-80
3.86914e-80
3.65027e-80
3.45783e-80
3.29102e-80
3.14908e-80
3.03134e-80
2.93722e-80
2.86622e-80
2.81798e-80
2.79223e-80
2.78881e-80
2.80772e-80
2.84903e-80
2.91296e-80
2.99983e-80
3.11006e-80
3.2442e-80
3.40285e-80
3.58671e-80
3.79656e-80
4.03318e-80
4.29742e-80
4.5901e-80
4.91203e-80
5.26393e-80
5.64646e-80
6.06011e-80
6.50521e-80
6.98185e-80
7.48983e-80
8.02862e-80
8.59725e-80
9.19432e-80
9.81785e-80
1.04653e-79
1.11334e-79
1.18182e-79
1.25148e-79
1.32176e-79
1.392e-79
1.46144e-79
1.52923e-79
1.59442e-79
1.65595e-79
1.71269e-79
1.76339e-79
1.80675e-79
1.84141e-79
1.86594e-79
1.87893e-79
2.30776e-79
2.29202e-79
2.26227e-79
2.22023e-79
2.16761e-79
2.10605e-79
2.03713e-79
1.96235e-79
1.88308e-79
1.80059e-79
1.71604e-79
1.63046e-79
1.54478e-79
1.45978e-79
1.37617e-79
1.29452e-79
1.21532e-79
1.13899e-79
1.06582e-79
9.96061e-80
9.29896e-80
8.67444e-80
8.08774e-80
7.53916e-80
7.02864e-80
6.55584e-80
6.12017e-80
5.72091e-80
5.35717e-80
5.02802e-80
4.73246e-80
4.46949e-80
4.23813e-80
4.03747e-80
3.86663e-80
3.72485e-80
3.61145e-80
3.52588e-80
3.4677e-80
3.43662e-80
3.43245e-80
3.45516e-80
3.50487e-80
3.58181e-80
3.68635e-80
3.81898e-80
3.98031e-80
4.17105e-80
4.39199e-80
4.644e-80
4.92799e-80
5.24492e-80
5.5957e-80
5.98124e-80
6.40235e-80
6.85975e-80
7.35396e-80
7.8853e-80
8.45382e-80
9.05922e-80
9.70079e-80
1.03774e-79
1.10872e-79
1.18279e-79
1.25964e-79
1.33888e-79
1.42004e-79
1.50255e-79
1.58574e-79
1.66882e-79
1.75091e-79
1.83101e-79
1.90798e-79
1.9806e-79
2.04753e-79
2.10731e-79
2.15841e-79
2.19924e-79
2.22813e-79
2.24342e-79
2.74669e-79
2.72818e-79
2.69318e-79
2.64369e-79
2.58173e-79
2.50923e-79
2.42803e-79
2.33989e-79
2.24642e-79
2.14912e-79
2.04934e-79
1.9483e-79
1.84708e-79
1.74662e-79
1.64774e-79
1.55113e-79
1.45737e-79
1.36693e-79
1.2802e-79
1.19745e-79
1.11892e-79
1.04474e-79
9.75004e-80
9.09756e-80
8.48993e-80
7.9268e-80
7.40756e-80
6.93139e-80
6.49731e-80
6.10425e-80
5.75109e-80
5.4367e-80
5.15996e-80
4.91982e-80
4.71527e-80
4.54544e-80
4.40956e-80
4.30698e-80
4.23721e-80
4.19989e-80
4.19482e-80
4.22198e-80
4.28147e-80
4.37358e-80
4.49872e-80
4.65745e-80
4.85049e-80
5.07862e-80
5.34278e-80
5.64394e-80
5.98315e-80
6.36148e-80
6.77998e-80
7.23966e-80
7.74144e-80
8.28609e-80
8.87419e-80
9.50605e-80
1.01817e-79
1.09006e-79
1.1662e-79
1.24645e-79
1.33058e-79
1.41831e-79
1.50929e-79
1.60304e-79
1.69901e-79
1.79651e-79
1.89477e-79
1.99285e-79
2.08972e-79
2.18419e-79
2.27494e-79
2.36052e-79
2.43936e-79
2.50977e-79
2.56993e-79
2.61798e-79
2.65198e-79
2.66995e-79
3.26077e-79
3.239e-79
3.19783e-79
3.13963e-79
3.06674e-79
2.98142e-79
2.88584e-79
2.78206e-79
2.67197e-79
2.55733e-79
2.43974e-79
2.32061e-79
2.20122e-79
2.08269e-79
1.96597e-79
1.85187e-79
1.74109e-79
1.63419e-79
1.5316e-79
1.43369e-79
1.34071e-79
1.25284e-79
1.17019e-79
1.09281e-79
1.02071e-79
9.53854e-80
8.92175e-80
8.35581e-80
7.83962e-80
7.37198e-80
6.9516e-80
6.5772e-80
6.24748e-80
5.96125e-80
5.71735e-80
5.51478e-80
5.35265e-80
5.23021e-80
5.14689e-80
5.10228e-80
5.09617e-80
5.12849e-80
5.19939e-80
5.30919e-80
5.45836e-80
5.64756e-80
5.87758e-80
6.14936e-80
6.46394e-80
6.82245e-80
7.22608e-80
7.67606e-80
8.17357e-80
8.71977e-80
9.31568e-80
9.96216e-80
1.06598e-79
1.1409e-79
1.22097e-79
1.30612e-79
1.39625e-79
1.49119e-79
1.59068e-79
1.69438e-79
1.80185e-79
1.91256e-79
2.02583e-79
2.14087e-79
2.25674e-79
2.37237e-79
2.48652e-79
2.59781e-79
2.70468e-79
2.80544e-79
2.89823e-79
2.98106e-79
3.05184e-79
3.10835e-79
3.14833e-79
3.16946e-79
3.86316e-79
3.83758e-79
3.78919e-79
3.72077e-79
3.63506e-79
3.53472e-79
3.4223e-79
3.30019e-79
3.17064e-79
3.0357e-79
2.89724e-79
2.75694e-79
2.61629e-79
2.4766e-79
2.339e-79
2.20445e-79
2.07376e-79
1.94759e-79
1.82648e-79
1.71083e-79
1.60096e-79
1.49708e-79
1.39933e-79
1.30778e-79
1.22243e-79
1.14326e-79
1.07018e-79
1.0031e-79
9.41887e-80
8.8641e-80
8.36519e-80
7.92067e-80
7.52907e-80
7.18899e-80
6.89913e-80
6.65831e-80
6.4655e-80
6.31985e-80
6.2207e-80
6.16758e-80
6.16022e-80
6.19857e-80
6.28279e-80
6.41324e-80
6.59047e-80
6.81523e-80
7.08845e-80
7.41119e-80
7.78465e-80
8.21014e-80
8.68901e-80
9.22267e-80
9.81248e-80
1.04597e-79
1.11656e-79
1.19311e-79
1.27568e-79
1.3643e-79
1.45898e-79
1.55962e-79
1.66611e-79
1.77823e-79
1.89567e-79
2.01804e-79
2.14482e-79
2.27536e-79
2.40887e-79
2.54442e-79
2.68092e-79
2.81708e-79
2.95147e-79
3.08245e-79
3.2082e-79
3.32673e-79
3.43587e-79
3.53328e-79
3.61649e-79
3.68292e-79
3.7299e-79
3.75474e-79
4.56935e-79
4.5393e-79
4.48244e-79
4.40203e-79
4.30129e-79
4.18334e-79
4.05116e-79
3.90759e-79
3.75522e-79
3.59649e-79
3.43359e-79
3.26848e-79
3.10292e-79
2.93845e-79
2.7764e-79
2.6179e-79
2.4639e-79
2.31518e-79
2.17238e-79
2.03598e-79
1.90634e-79
1.78374e-79
1.66833e-79
1.56019e-79
1.45935e-79
1.36577e-79
1.27936e-79
1.20002e-79
1.12759e-79
1.06192e-79
1.00285e-79
9.50203e-80
9.03807e-80
8.63505e-80
8.29144e-80
8.00589e-80
7.77722e-80
7.60443e-80
7.48677e-80
7.42368e-80
7.41486e-80
7.46024e-80
7.56002e-80
7.71459e-80
7.92461e-80
8.19094e-80
8.51463e-80
8.89693e-80
9.33921e-80
9.84298e-80
1.04098e-79
1.10413e-79
1.1739e-79
1.25044e-79
1.33389e-79
1.42434e-79
1.52188e-79
1.62654e-79
1.7383e-79
1.85708e-79
1.9827e-79
2.11492e-79
2.25338e-79
2.3976e-79
2.54697e-79
2.70072e-79
2.85794e-79
3.01752e-79
3.17816e-79
3.33838e-79
3.49648e-79
3.65054e-79
3.79841e-79
3.93778e-79
4.06607e-79
4.18056e-79
4.27835e-79
4.35641e-79
4.41161e-79
4.44079e-79
5.39746e-79
5.36216e-79
5.29537e-79
5.2009e-79
5.08253e-79
4.94393e-79
4.7886e-79
4.61984e-79
4.44073e-79
4.2541e-79
4.06254e-79
3.86836e-79
3.67361e-79
3.4801e-79
3.2894e-79
3.10284e-79
2.92153e-79
2.7464e-79
2.5782e-79
2.41749e-79
2.26471e-79
2.12018e-79
1.98409e-79
1.85654e-79
1.73757e-79
1.62712e-79
1.52512e-79
1.43142e-79
1.34587e-79
1.26828e-79
1.19847e-79
1.13623e-79
1.08136e-79
1.0337e-79
9.93049e-80
9.59261e-80
9.32198e-80
9.11745e-80
8.97812e-80
8.90336e-80
8.89282e-80
8.94642e-80
9.06437e-80
9.24715e-80
9.49551e-80
9.81044e-80
1.01932e-79
1.06451e-79
1.11679e-79
1.17632e-79
1.2433e-79
1.31789e-79
1.40028e-79
1.49065e-79
1.58914e-79
1.69587e-79
1.81093e-79
1.93436e-79
2.06612e-79
2.20611e-79
2.35414e-79
2.5099e-79
2.67297e-79
2.84278e-79
3.01861e-79
3.19956e-79
3.38455e-79
3.57228e-79
3.76123e-79
3.94964e-79
4.13553e-79
4.31663e-79
4.49045e-79
4.65424e-79
4.805e-79
4.93952e-79
5.05441e-79
5.14611e-79
5.21095e-79
5.24521e-79
6.36879e-79
6.32734e-79
6.24888e-79
6.13792e-79
5.99887e-79
5.83604e-79
5.65354e-79
5.45524e-79
5.24476e-79
5.02543e-79
4.80026e-79
4.57198e-79
4.34301e-79
4.11546e-79
3.89117e-79
3.67172e-79
3.45841e-79
3.25233e-79
3.05435e-79
2.86516e-79
2.68527e-79
2.51506e-79
2.35474e-79
2.20446e-79
2.06424e-79
1.93405e-79
1.81378e-79
1.70327e-79
1.60235e-79
1.51081e-79
1.42842e-79
1.35495e-79
1.29018e-79
1.23389e-79
1.18588e-79
1.14597e-79
1.11399e-79
1.08982e-79
1.07335e-79
1.06451e-79
1.06325e-79
1.06957e-79
1.0835e-79
1.10507e-79
1.1344e-79
1.17158e-79
1.21676e-79
1.27011e-79
1.3318e-79
1.40206e-79
1.48107e-79
1.56906e-79
1.66623e-79
1.77278e-79
1.88888e-79
2.01468e-79
2.15026e-79
2.29566e-79
2.45085e-79
2.6157e-79
2.78997e-79
2.97331e-79
3.1652e-79
3.365e-79
3.57184e-79
3.78467e-79
4.00221e-79
4.22294e-79
4.44507e-79
4.66654e-79
4.88501e-79
5.09784e-79
5.30208e-79
5.49451e-79
5.67161e-79
5.82964e-79
5.96458e-79
6.07228e-79
6.14842e-79
6.18866e-79
7.50831e-79
7.45963e-79
7.36749e-79
7.23717e-79
7.07386e-79
6.88261e-79
6.66823e-79
6.43528e-79
6.188e-79
5.93029e-79
5.66571e-79
5.39744e-79
5.12833e-79
4.86086e-79
4.59719e-79
4.33916e-79
4.08832e-79
3.84596e-79
3.61308e-79
3.39051e-79
3.17884e-79
2.97852e-79
2.78982e-79
2.61289e-79
2.44779e-79
2.29446e-79
2.15278e-79
2.02259e-79
1.90367e-79
1.79577e-79
1.69865e-79
1.61203e-79
1.53565e-79
1.46927e-79
1.41264e-79
1.36555e-79
1.32782e-79
1.2993e-79
1.27985e-79
1.26941e-79
1.26792e-79
1.27536e-79
1.29177e-79
1.31721e-79
1.35178e-79
1.39562e-79
1.44889e-79
1.51179e-79
1.58452e-79
1.66732e-79
1.76043e-79
1.86411e-79
1.97859e-79
2.1041e-79
2.24083e-79
2.38896e-79
2.54858e-79
2.71974e-79
2.90238e-79
3.09635e-79
3.30138e-79
3.51704e-79
3.74273e-79
3.97768e-79
4.22087e-79
4.47108e-79
4.72679e-79
4.98621e-79
5.24725e-79
5.50749e-79
5.76417e-79
6.0142e-79
6.25412e-79
6.48015e-79
6.68817e-79
6.87376e-79
7.03223e-79
7.1587e-79
7.24811e-79
7.29536e-79
8.84532e-79
8.78816e-79
8.67997e-79
8.52694e-79
8.33516e-79
8.11054e-79
7.85876e-79
7.58516e-79
7.2947e-79
6.99197e-79
6.68114e-79
6.36596e-79
6.04976e-79
5.73546e-79
5.42559e-79
5.12233e-79
4.82748e-79
4.54256e-79
4.26876e-79
4.00704e-79
3.75812e-79
3.5225e-79
3.30052e-79
3.09236e-79
2.89808e-79
2.71762e-79
2.55086e-79
2.3976e-79
2.25758e-79
2.13052e-79
2.01613e-79
1.9141e-79
1.82413e-79
1.74591e-79
1.67918e-79
1.62368e-79
1.57921e-79
1.54559e-79
1.52266e-79
1.51034e-79
1.50857e-79
1.51733e-79
1.53665e-79
1.56662e-79
1.60734e-79
1.65898e-79
1.72172e-79
1.7958e-79
1.88145e-79
1.97896e-79
2.0886e-79
2.21065e-79
2.34541e-79
2.49314e-79
2.65405e-79
2.82835e-79
3.01614e-79
3.21748e-79
3.4323e-79
3.66042e-79
3.9015e-79
4.15506e-79
4.42038e-79
4.69654e-79
4.98237e-79
5.2764e-79
5.57687e-79
5.88168e-79
6.18836e-79
6.49407e-79
6.79559e-79
7.08926e-79
7.37104e-79
7.63649e-79
7.88077e-79
8.0987e-79
8.28479e-79
8.43328e-79
8.53826e-79
8.59373e-79
1.04142e-78
1.03471e-78
1.02201e-78
1.00404e-78
9.81519e-79
9.55144e-79
9.25576e-79
8.93444e-79
8.59332e-79
8.23776e-79
7.87267e-79
7.50245e-79
7.131e-79
6.76176e-79
6.3977e-79
6.04137e-79
5.6949e-79
5.36005e-79
5.03826e-79
4.73063e-79
4.438e-79
4.16099e-79
3.89998e-79
3.6552e-79
3.42671e-79
3.21445e-79
3.01828e-79
2.83796e-79
2.67321e-79
2.52369e-79
2.38907e-79
2.26897e-79
2.16305e-79
2.07096e-79
1.99239e-79
1.92705e-79
1.87467e-79
1.83507e-79
1.80806e-79
1.79354e-79
1.79143e-79
1.80173e-79
1.82447e-79
1.85973e-79
1.90766e-79
1.96844e-79
2.04229e-79
2.12947e-79
2.23027e-79
2.345e-79
2.47401e-79
2.61761e-79
2.77614e-79
2.94991e-79
3.13917e-79
3.34414e-79
3.56497e-79
3.8017e-79
4.05425e-79
4.3224e-79
4.60577e-79
4.90376e-79
5.21556e-79
5.54006e-79
5.87589e-79
6.22134e-79
6.57432e-79
6.93236e-79
7.29258e-79
7.65164e-79
8.00575e-79
8.35062e-79
8.68152e-79
8.99323e-79
9.28006e-79
9.53595e-79
9.75443e-79
9.92877e-79
1.0052e-78
1.01171e-78
1.22554e-78
1.21766e-78
1.20275e-78
1.18165e-78
1.15521e-78
1.12424e-78
1.08952e-78
1.05179e-78
1.01173e-78
9.69973e-79
9.27096e-79
8.83615e-79
8.39987e-79
7.96616e-79
7.53852e-79
7.11992e-79
6.71288e-79
6.31948e-79
5.94137e-79
5.57988e-79
5.23599e-79
4.91042e-79
4.60364e-79
4.3159e-79
4.04729e-79
3.79774e-79
3.56707e-79
3.35503e-79
3.16127e-79
2.98542e-79
2.82706e-79
2.68578e-79
2.56117e-79
2.45282e-79
2.36036e-79
2.28347e-79
2.22183e-79
2.17521e-79
2.14342e-79
2.12631e-79
2.12382e-79
2.13592e-79
2.16265e-79
2.20413e-79
2.26051e-79
2.332e-79
2.41886e-79
2.5214e-79
2.63995e-79
2.77489e-79
2.9266e-79
3.09546e-79
3.28187e-79
3.48616e-79
3.70866e-79
3.94961e-79
4.20918e-79
4.4874e-79
4.7842e-79
5.09931e-79
5.43228e-79
5.7824e-79
6.1487e-79
6.52991e-79
6.92441e-79
7.33016e-79
7.74474e-79
8.16525e-79
8.58828e-79
9.00994e-79
9.42575e-79
9.83071e-79
1.02192e-78
1.05852e-78
1.0922e-78
1.12224e-78
1.14789e-78
1.16836e-78
1.18283e-78
1.19047e-78
1.44162e-78
1.43237e-78
1.41486e-78
1.39009e-78
1.35905e-78
1.32268e-78
1.28192e-78
1.23762e-78
1.19058e-78
1.14155e-78
1.0912e-78
1.04014e-78
9.88902e-79
9.37967e-79
8.87741e-79
8.38575e-79
7.90764e-79
7.44551e-79
7.00134e-79
6.57665e-79
6.17263e-79
5.79009e-79
5.42961e-79
5.09147e-79
4.77579e-79
4.48249e-79
4.21137e-79
3.96212e-79
3.73434e-79
3.52759e-79
3.3414e-79
3.17528e-79
3.02875e-79
2.90133e-79
2.79259e-79
2.70214e-79
2.62964e-79
2.5748e-79
2.53739e-79
2.51725e-79
2.5143e-79
2.52851e-79
2.55994e-79
2.6087e-79
2.67498e-79
2.75902e-79
2.86114e-79
2.98169e-79
3.12106e-79
3.27969e-79
3.45802e-79
3.65651e-79
3.8756e-79
4.1157e-79
4.37719e-79
4.66033e-79
4.96533e-79
5.29223e-79
5.64094e-79
6.01113e-79
6.40227e-79
6.81354e-79
7.2438e-79
7.69154e-79
8.15485e-79
8.63137e-79
9.11823e-79
9.61202e-79
1.01088e-78
1.06039e-78
1.10921e-78
1.15676e-78
1.20237e-78
1.24534e-78
1.28488e-78
1.32015e-78
1.35026e-78
1.37428e-78
1.39127e-78
1.40024e-78
1.69523e-78
1.68437e-78
1.66381e-78
1.63473e-78
1.59828e-78
1.55559e-78
1.50773e-78
1.45572e-78
1.40049e-78
1.34292e-78
1.2838e-78
1.22384e-78
1.16368e-78
1.10386e-78
1.04488e-78
9.87142e-79
9.30991e-79
8.76715e-79
8.24545e-79
7.74661e-79
7.27201e-79
6.82264e-79
6.39915e-79
6.00189e-79
5.63099e-79
5.28636e-79
4.96778e-79
4.67487e-79
4.40718e-79
4.16419e-79
3.94535e-79
3.75009e-79
3.57784e-79
3.42805e-79
3.30021e-79
3.19387e-79
3.10863e-79
3.04413e-79
3.00013e-79
2.97644e-79
2.97295e-79
2.98964e-79
3.02656e-79
3.08386e-79
3.16175e-79
3.26052e-79
3.38054e-79
3.5222e-79
3.68599e-79
3.8724e-79
4.08196e-79
4.31519e-79
4.57262e-79
4.85473e-79
5.16193e-79
5.49458e-79
5.85287e-79
6.23688e-79
6.64648e-79
7.08129e-79
7.54069e-79
8.02371e-79
8.529e-79
9.0548e-79
9.59886e-79
1.01584e-78
1.07301e-78
1.13099e-78
1.18931e-78
1.24744e-78
1.30476e-78
1.36058e-78
1.41414e-78
1.46458e-78
1.51099e-78
1.55239e-78
1.58774e-78
1.61595e-78
1.63589e-78
1.64642e-78
1.99289e-78
1.98014e-78
1.95601e-78
1.92187e-78
1.87908e-78
1.82896e-78
1.77277e-78
1.7117e-78
1.64686e-78
1.57927e-78
1.50986e-78
1.43946e-78
1.36881e-78
1.29858e-78
1.22932e-78
1.16152e-78
1.09558e-78
1.03184e-78
9.70572e-79
9.11987e-79
8.56246e-79
8.03466e-79
7.53723e-79
7.07059e-79
6.63489e-79
6.23004e-79
5.85576e-79
5.51163e-79
5.19712e-79
4.91162e-79
4.65447e-79
4.42502e-79
4.22259e-79
4.04656e-79
3.89632e-79
3.77133e-79
3.67113e-79
3.59532e-79
3.54359e-79
3.51572e-79
3.51159e-79
3.53118e-79
3.57455e-79
3.64186e-79
3.73337e-79
3.84942e-79
3.99042e-79
4.15686e-79
4.34929e-79
4.56829e-79
4.81447e-79
5.08846e-79
5.39087e-79
5.72225e-79
6.0831e-79
6.47381e-79
6.89463e-79
7.34564e-79
7.82668e-79
8.33732e-79
8.8768e-79
9.444e-79
1.00373e-78
1.06547e-78
1.12936e-78
1.19505e-78
1.26217e-78
1.33024e-78
1.39872e-78
1.46696e-78
1.53426e-78
1.59979e-78
1.66265e-78
1.72187e-78
1.77635e-78
1.82496e-78
1.86645e-78
1.89956e-78
1.92296e-78
1.93533e-78
2.34227e-78
2.32731e-78
2.29898e-78
2.2589e-78
2.20866e-78
2.14982e-78
2.08386e-78
2.01216e-78
1.93604e-78
1.85668e-78
1.77519e-78
1.69253e-78
1.60959e-78
1.52713e-78
1.44581e-78
1.36619e-78
1.28877e-78
1.21392e-78
1.14198e-78
1.07318e-78
1.00772e-78
9.45734e-79
8.87314e-79
8.32509e-79
7.81335e-79
7.33783e-79
6.8982e-79
6.49397e-79
6.12451e-79
5.78912e-79
5.48702e-79
5.21745e-79
4.97963e-79
4.7728e-79
4.59627e-79
4.4494e-79
4.33165e-79
4.24256e-79
4.18175e-79
4.14899e-79
4.14411e-79
4.1671e-79
4.21802e-79
4.29708e-79
4.40456e-79
4.54087e-79
4.70649e-79
4.902e-79
5.12802e-79
5.38525e-79
5.67441e-79
5.99622e-79
6.35139e-79
6.74058e-79
7.16437e-79
7.62321e-79
8.11741e-79
8.64703e-79
9.21189e-79
9.8115e-79
1.0445e-78
1.11109e-78
1.18076e-78
1.25325e-78
1.32825e-78
1.40538e-78
1.48418e-78
1.5641e-78
1.64448e-78
1.7246e-78
1.80359e-78
1.88052e-78
1.95432e-78
2.02383e-78
2.08779e-78
2.14484e-78
2.19355e-78
2.23241e-78
2.25988e-78
2.2744e-78
2.75237e-78
2.7348e-78
2.70154e-78
2.65449e-78
2.59552e-78
2.52644e-78
2.449e-78
2.36483e-78
2.27546e-78
2.1823e-78
2.08662e-78
1.98958e-78
1.89221e-78
1.79539e-78
1.69991e-78
1.60643e-78
1.51553e-78
1.42765e-78
1.34317e-78
1.26238e-78
1.18552e-78
1.11273e-78
1.04413e-78
9.79768e-79
9.19671e-79
8.63826e-79
8.12194e-79
7.64717e-79
7.21323e-79
6.81929e-79
6.46445e-79
6.14781e-79
5.86844e-79
5.62547e-79
5.41809e-79
5.24555e-79
5.10721e-79
5.00252e-79
4.93107e-79
4.89255e-79
4.8868e-79
4.91377e-79
4.97356e-79
5.06639e-79
5.19261e-79
5.35269e-79
5.54719e-79
5.7768e-79
6.04224e-79
6.34433e-79
6.6839e-79
7.06182e-79
7.4789e-79
7.93592e-79
8.43356e-79
8.97235e-79
9.55264e-79
1.01745e-78
1.08377e-78
1.15418e-78
1.22855e-78
1.30674e-78
1.38853e-78
1.47363e-78
1.56168e-78
1.65224e-78
1.74474e-78
1.83856e-78
1.93292e-78
2.02697e-78
2.1197e-78
2.21e-78
2.29663e-78
2.37823e-78
2.4533e-78
2.52027e-78
2.57744e-78
2.62306e-78
2.65531e-78
2.67234e-78
3.23374e-78
3.21311e-78
3.17407e-78
3.11883e-78
3.04961e-78
2.96852e-78
2.8776e-78
2.77879e-78
2.67388e-78
2.56451e-78
2.45218e-78
2.33826e-78
2.22394e-78
2.11027e-78
1.99817e-78
1.88843e-78
1.7817e-78
1.67852e-78
1.57933e-78
1.48448e-78
1.39422e-78
1.30876e-78
1.2282e-78
1.15263e-78
1.08206e-78
1.01648e-78
9.55848e-79
9.00093e-79
8.49132e-79
8.02867e-79
7.61194e-79
7.24004e-79
6.91192e-79
6.62654e-79
6.38295e-79
6.18028e-79
6.01778e-79
5.89479e-79
5.81084e-79
5.76557e-79
5.75878e-79
5.79042e-79
5.86061e-79
5.9696e-79
6.11781e-79
6.30577e-79
6.53417e-79
6.80377e-79
7.11547e-79
7.47019e-79
7.86892e-79
8.31267e-79
8.8024e-79
9.33902e-79
9.92332e-79
1.05559e-78
1.12372e-78
1.19674e-78
1.2746e-78
1.35726e-78
1.44457e-78
1.53637e-78
1.63239e-78
1.73229e-78
1.83566e-78
1.94196e-78
2.05055e-78
2.16068e-78
2.27145e-78
2.38185e-78
2.4907e-78
2.5967e-78
2.69839e-78
2.79417e-78
2.88229e-78
2.9609e-78
3.02801e-78
3.08155e-78
3.1194e-78
3.1394e-78
3.79877e-78
3.77456e-78
3.72872e-78
3.66389e-78
3.58262e-78
3.48743e-78
3.3807e-78
3.2647e-78
3.14154e-78
3.01314e-78
2.88128e-78
2.74754e-78
2.61332e-78
2.47988e-78
2.34828e-78
2.21944e-78
2.09413e-78
1.97299e-78
1.85654e-78
1.74517e-78
1.63921e-78
1.53886e-78
1.44428e-78
1.35554e-78
1.27268e-78
1.19568e-78
1.12448e-78
1.05901e-78
9.9917e-79
9.4484e-79
8.95902e-79
8.52228e-79
8.13694e-79
7.80179e-79
7.51571e-79
7.27768e-79
7.0868e-79
6.94235e-79
6.84372e-79
6.79052e-79
6.78251e-79
6.81963e-79
6.90201e-79
7.02996e-79
7.20396e-79
7.42465e-79
7.69281e-79
8.00936e-79
8.37532e-79
8.7918e-79
9.25996e-79
9.78096e-79
1.03559e-78
1.0986e-78
1.1672e-78
1.24147e-78
1.32145e-78
1.40717e-78
1.49858e-78
1.59562e-78
1.69812e-78
1.80588e-78
1.9186e-78
2.03588e-78
2.15722e-78
2.282e-78
2.40947e-78
2.53875e-78
2.66878e-78
2.79836e-78
2.92614e-78
3.05056e-78
3.16993e-78
3.28235e-78
3.38579e-78
3.47805e-78
3.55682e-78
3.61967e-78
3.6641e-78
3.68758e-78
4.46202e-78
4.4336e-78
4.37979e-78
4.30368e-78
4.20828e-78
4.09653e-78
3.97125e-78
3.83507e-78
3.69049e-78
3.53976e-78
3.38496e-78
3.22795e-78
3.07039e-78
2.91373e-78
2.75924e-78
2.60798e-78
2.46087e-78
2.31865e-78
2.18193e-78
2.05119e-78
1.92678e-78
1.80897e-78
1.69792e-78
1.59374e-78
1.49645e-78
1.40603e-78
1.32244e-78
1.24556e-78
1.1753e-78
1.1115e-78
1.05404e-78
1.00276e-78
9.57505e-79
9.18148e-79
8.84553e-79
8.56599e-79
8.34182e-79
8.17216e-79
8.05631e-79
7.99379e-79
7.98434e-79
8.02788e-79
8.12457e-79
8.27477e-79
8.47904e-79
8.73812e-79
9.05294e-79
9.42457e-79
9.85422e-79
1.03432e-78
1.08928e-78
1.15045e-78
1.21795e-78
1.29191e-78
1.37245e-78
1.45964e-78
1.55354e-78
1.65416e-78
1.76148e-78
1.87538e-78
1.99571e-78
2.12221e-78
2.25453e-78
2.3922e-78
2.53464e-78
2.68111e-78