/*--------------------------------*- C++ -*----------------------------------*\
  =========                 |
  \\      /  F ield         | OpenFOAM: The Open Source CFD Toolbox
   \\    /   O peration     | Website:  https://openfoam.org
    \\  /    A nd           | Version:  11
     \\/     M anipulation  |
\*---------------------------------------------------------------------------*/
FoamFile
{
    format      ascii;
    class       volScalarField;
    location    "100";
    object      C;
}
// * * * * * * * * * * * * * * * * * * * * * * * * * * * * * * * * * * * * * //

dimensions      [0 0 0 1 0 0 0];

internalField   nonuniform List<scalar> 
427520
(
4.65599e-296
4.12523e-296
3.28965e-296
2.43806e-296
1.71429e-296
1.15993e-296
7.62897e-297
4.91112e-297
3.10806e-297
1.93893e-297
1.19426e-297
7.26977e-298
4.37597e-298
2.60554e-298
1.53481e-298
8.94438e-299
5.15638e-299
2.94007e-299
1.65759e-299
9.23768e-300
5.08674e-300
2.76639e-300
1.48512e-300
7.86568e-301
4.10734e-301
2.11315e-301
1.0703e-301
5.33238e-302
2.61078e-302
1.25489e-302
5.91491e-303
2.73065e-303
1.23305e-303
5.43836e-304
2.33909e-304
9.79439e-305
3.98528e-305
1.57261e-305
6.00501e-306
2.21254e-306
7.82135e-307
2.6889e-307
9.03502e-308
2.97498e-308
9.72244e-309
3.05579e-309
8.11184e-310
8.84607e-311
5.48024e-311
2.06544e-310
1.71554e-310
1.0469e-310
1.81412e-310
1.31088e-310
5.98001e-312
1.74247e-311
-2.68353e-311
8.22299e-311
2.25217e-310
2.81488e-310
4.83534e-310
5.60129e-310
5.86423e-310
5.95014e-310
4.59539e-310
1.51718e-310
3.41723e-312
-1.12533e-310
-1.58023e-310
-5.34085e-311
-2.81909e-312
3.32653e-311
1.36121e-310
2.66248e-310
1.99921e-310
1.49515e-310
1.50587e-310
5.77581e-311
4.24772e-311
9.599e-312
3.8553e-295
2.76686e-295
1.97886e-295
1.39375e-295
9.64872e-296
6.56034e-296
4.37972e-296
2.87215e-296
1.85181e-296
1.17513e-296
7.34766e-297
4.53094e-297
2.75762e-297
1.65739e-297
9.84069e-298
5.7733e-298
3.34694e-298
1.91721e-298
1.08497e-298
6.06417e-299
3.34646e-299
1.82253e-299
9.79084e-300
5.18534e-300
2.70561e-300
1.38987e-300
7.02352e-301
3.48837e-301
1.7012e-301
8.13739e-302
3.81325e-302
1.74833e-302
7.83152e-303
3.42202e-303
1.45608e-303
6.02198e-304
2.41572e-304
9.37829e-305
3.51448e-305
1.26697e-305
4.35655e-306
1.46376e-306
4.8169e-307
1.55743e-307
4.94013e-308
1.54137e-308
4.63341e-309
1.42414e-309
5.1747e-310
1.21664e-310
5.38301e-311
-7.52201e-311
-1.72466e-310
-1.63562e-310
-1.19554e-310
-8.23624e-312
7.03566e-311
3.93416e-311
1.42792e-310
2.37239e-310
1.47129e-310
1.25012e-310
-6.53567e-313
-1.23299e-310
2.49436e-311
1.81205e-310
6.03622e-311
2.45837e-311
-5.59489e-311
-9.74026e-311
-1.09794e-311
5.52851e-311
-1.16518e-311
-2.10059e-311
1.67218e-310
1.63193e-310
1.49199e-310
1.72236e-310
2.15794e-310
1.29558e-310
2.28722e-294
1.51343e-294
9.81234e-295
6.4366e-295
4.25259e-295
2.81315e-295
1.85393e-295
1.21271e-295
7.8544e-296
5.02927e-296
3.18099e-296
1.98657e-296
1.22479e-296
7.45461e-297
4.47918e-297
2.65697e-297
1.55588e-297
8.99331e-298
5.13031e-298
2.88761e-298
1.6031e-298
8.77462e-299
4.73298e-299
2.51437e-299
1.31472e-299
6.76119e-300
3.417e-300
1.6955e-300
8.25156e-301
3.93427e-301
1.83542e-301
8.36646e-302
3.72055e-302
1.61134e-302
6.7835e-303
2.77008e-303
1.09467e-303
4.17542e-304
1.53263e-304
5.39151e-305
1.79682e-305
5.87374e-306
1.88569e-306
5.95278e-307
1.84835e-307
5.67132e-308
1.7222e-308
5.20784e-309
1.58973e-309
2.84331e-310
-6.89913e-312
-1.52429e-311
-1.95279e-310
-1.42298e-310
-8.1872e-312
4.28969e-311
2.21865e-310
7.83354e-311
1.58947e-311
9.8004e-311
-9.98241e-311
-1.87799e-310
-1.58984e-310
-2.10093e-310
-6.97645e-311
1.99625e-310
3.57619e-310
3.8543e-310
2.21118e-310
1.22766e-310
1.8107e-310
8.28413e-311
-1.63858e-311
1.12348e-310
2.80558e-310
2.0672e-310
1.57658e-310
8.2485e-311
8.68354e-311
1.31706e-310
1.05353e-293
6.97544e-294
4.30958e-294
2.67574e-294
1.68456e-294
1.07238e-294
6.8699e-295
4.40877e-295
2.82367e-295
1.79953e-295
1.1386e-295
7.14041e-296
4.43275e-296
2.72158e-296
1.65144e-296
9.89828e-297
5.85757e-297
3.421e-297
1.97103e-297
1.11984e-297
6.27115e-298
3.45978e-298
1.87939e-298
1.00458e-298
5.28011e-299
2.72683e-299
1.38244e-299
6.87367e-300
3.34819e-300
1.59583e-300
7.43238e-301
3.37742e-301
1.49496e-301
6.43346e-302
2.6861e-302
1.08553e-302
4.23502e-303
1.59027e-303
5.72775e-304
1.96918e-304
6.36982e-305
2.0264e-305
6.34357e-306
1.95497e-306
5.93669e-307
1.77746e-307
5.27381e-308
1.5367e-308
4.25432e-309
1.09192e-309
2.37997e-310
1.49631e-310
1.77555e-310
2.31854e-310
2.49474e-310
2.24755e-310
2.79151e-310
2.51859e-310
1.43288e-310
8.15306e-311
3.91425e-311
-7.94544e-311
-2.20379e-310
-1.43539e-310
4.27652e-311
1.61199e-310
2.93247e-310
3.76003e-310
3.27059e-310
4.36596e-310
4.27846e-310
2.21514e-311
-1.44449e-310
1.31349e-310
2.98195e-310
1.93107e-310
3.16779e-310
1.93086e-310
-8.7917e-311
-2.45561e-311
4.10579e-293
2.78712e-293
1.7015e-293
1.02345e-293
6.21037e-294
3.81563e-294
2.36892e-294
1.48118e-294
9.29472e-295
5.83541e-295
3.6554e-295
2.27945e-295
1.4123e-295
8.68029e-296
5.2854e-296
3.18474e-296
1.89717e-296
1.11639e-296
6.48438e-297
3.71497e-297
2.09785e-297
1.16686e-297
6.38818e-298
3.43966e-298
1.82003e-298
9.45543e-299
4.81841e-299
2.40592e-299
1.17571e-299
5.61563e-300
2.61784e-300
1.18913e-300
5.25382e-301
2.25318e-301
9.35837e-302
3.75462e-302
1.45086e-302
5.3818e-303
1.90881e-303
6.43746e-304
2.02981e-304
6.3045e-305
1.9292e-305
5.81795e-306
1.72975e-306
5.07139e-307
1.47047e-307
4.19909e-308
1.1604e-308
3.23763e-309
8.4378e-310
3.01385e-310
1.75872e-310
2.11924e-310
3.16993e-310
4.58249e-310
5.43872e-310
3.10649e-310
2.7525e-310
4.40295e-310
4.31606e-310
2.91912e-310
-6.23031e-311
-2.40471e-310
-2.11369e-310
7.0152e-311
2.36337e-310
2.75472e-310
2.54258e-310
3.31747e-310
2.58053e-310
-1.3556e-311
-1.30628e-310
1.51638e-311
3.02951e-311
6.17755e-311
1.5395e-310
1.2967e-310
-8.53378e-311
-2.10233e-310
1.42215e-292
9.93946e-293
6.1145e-293
3.62992e-293
2.15084e-293
1.28504e-293
7.75473e-294
4.72073e-294
2.89237e-294
1.77911e-294
1.09592e-294
6.74489e-295
4.13885e-295
2.52741e-295
1.53333e-295
9.22808e-296
5.50201e-296
3.24594e-296
1.89272e-296
1.08972e-296
6.18863e-297
3.46348e-297
1.90833e-297
1.0342e-297
5.50712e-298
2.8785e-298
1.47517e-298
7.40339e-299
3.63386e-299
1.74194e-299
8.14223e-300
3.70456e-300
1.63745e-300
7.01593e-301
2.90683e-301
1.16134e-301
4.45983e-302
1.64023e-302
5.75211e-303
1.91163e-303
5.90762e-304
1.79983e-304
5.40576e-305
1.60089e-305
4.6756e-306
1.34715e-306
3.832e-307
1.07638e-307
2.98904e-308
8.27235e-309
2.28434e-309
7.44554e-310
3.09916e-310
2.007e-310
3.02402e-310
4.62636e-310
5.83082e-310
1.63518e-310
-5.40536e-311
1.58816e-310
2.07081e-310
2.2437e-310
9.33922e-311
-4.92411e-311
-2.30506e-310
-4.23645e-312
3.77059e-310
2.98172e-310
5.93614e-311
8.984e-311
1.94645e-310
1.28051e-310
1.33733e-310
1.46633e-310
4.3375e-311
1.73287e-311
-3.03264e-312
-1.21078e-310
-3.22888e-310
-4.39164e-310
4.51673e-292
3.24283e-292
2.02786e-292
1.20282e-292
7.03432e-293
4.11918e-293
2.42813e-293
1.44237e-293
8.62793e-294
5.1892e-294
3.13225e-294
1.89377e-294
1.14466e-294
6.904e-295
4.14797e-295
2.47838e-295
1.47038e-295
8.6495e-296
5.03808e-296
2.90195e-296
1.65093e-296
9.26534e-297
5.12356e-297
2.78836e-297
1.49167e-297
7.83444e-298
4.03455e-298
2.03442e-298
1.00303e-298
4.8276e-299
2.26437e-299
1.03309e-299
4.57503e-300
1.962e-300
8.12659e-301
3.24132e-301
1.24069e-301
4.53951e-302
1.58024e-302
5.19878e-303
1.58362e-303
4.75673e-304
1.40877e-304
4.11431e-305
1.1851e-305
3.36783e-306
9.443e-307
2.61554e-307
7.16241e-308
1.95255e-308
5.14104e-309
1.38554e-309
5.71211e-310
2.02151e-310
1.7507e-310
3.25443e-310
3.35669e-310
6.8044e-311
-3.02928e-310
-2.39391e-310
8.12661e-311
3.08075e-310
2.33768e-310
2.36343e-310
2.83783e-310
3.31038e-310
5.77989e-310
3.51555e-310
6.49169e-311
1.55438e-310
3.0097e-310
9.65264e-311
3.68539e-311
3.8002e-310
2.28983e-310
-1.03469e-311
-1.09274e-310
-1.5407e-310
-3.53798e-310
-4.67411e-310
1.34282e-291
9.86537e-292
6.28813e-292
3.75306e-292
2.18319e-292
1.26144e-292
7.3002e-293
4.24553e-293
2.48334e-293
1.46045e-293
8.6267e-294
5.11109e-294
3.0327e-294
1.79927e-294
1.06564e-294
6.29036e-295
3.69495e-295
2.15649e-295
1.24867e-295
7.16269e-296
4.06463e-296
2.27867e-296
1.26024e-296
6.86662e-297
3.68083e-297
1.9384e-297
1.00138e-297
5.06695e-298
2.50715e-298
1.21102e-298
5.69958e-299
2.60838e-299
1.15814e-299
4.97654e-300
2.06376e-300
8.23344e-301
3.14869e-301
1.14946e-301
3.98574e-302
1.30351e-302
3.93517e-303
1.17118e-303
3.43618e-304
9.93978e-305
2.83545e-305
7.97874e-306
2.21525e-306
6.0725e-307
1.64536e-307
4.41248e-308
1.15128e-308
2.94527e-309
1.11108e-309
4.05363e-310
1.99474e-310
4.28976e-310
4.45422e-310
2.82661e-310
7.66395e-311
-9.21065e-311
1.59594e-310
3.46425e-310
4.6599e-310
5.05944e-310
5.45189e-310
5.82497e-310
4.97827e-310
3.0904e-310
1.40157e-310
2.60206e-310
3.42485e-310
1.68836e-310
2.17439e-310
3.70328e-310
2.06837e-310
-4.22991e-311
-2.41069e-310
-3.37767e-310
-4.73516e-310
-6.22127e-310
3.79038e-291
2.83869e-291
1.8439e-291
1.11137e-291
6.46367e-292
3.70407e-292
2.11382e-292
1.20758e-292
6.92233e-293
3.98491e-293
2.30334e-293
1.33591e-293
7.76664e-294
4.52062e-294
2.6308e-294
1.52857e-294
8.85436e-295
5.10572e-295
2.92643e-295
1.66473e-295
9.38484e-296
5.23515e-296
2.88533e-296
1.56878e-296
8.40144e-297
4.42468e-297
2.2879e-297
1.15952e-297
5.74961e-298
2.78414e-298
1.31388e-298
6.02958e-299
2.68437e-299
1.15632e-299
4.80524e-300
1.92008e-300
7.34954e-301
2.68317e-301
9.29484e-302
3.03299e-302
9.11914e-303
2.70156e-303
7.88636e-304
2.26901e-304
6.43603e-305
1.80041e-305
4.969e-306
1.35366e-306
3.64403e-307
9.69722e-308
2.55426e-308
6.57954e-309
1.95813e-309
8.44509e-310
4.84061e-310
6.85303e-310
7.16568e-310
4.18224e-310
1.51944e-310
-6.82366e-311
-1.49654e-310
3.78831e-311
3.35342e-310
4.40701e-310
5.11415e-310
6.92968e-310
5.73311e-310
3.19202e-310
1.65875e-310
2.18868e-310
2.62583e-310
1.99418e-310
1.28491e-310
4.46973e-311
1.50545e-310
3.92156e-311
-2.72659e-310
-5.76249e-310
-8.54389e-310
-1.00115e-309
1.0262e-290
7.8089e-291
5.16184e-291
3.14625e-291
1.83524e-291
1.04695e-291
5.9126e-292
3.32799e-292
1.87385e-292
1.05743e-292
5.98482e-293
3.39744e-293
1.93356e-293
1.1024e-293
6.29027e-294
3.58798e-294
2.04333e-294
1.16026e-294
6.55969e-295
3.68718e-295
2.05746e-295
1.13796e-295
6.22856e-296
3.36832e-296
1.79671e-296
9.43711e-297
4.87221e-297
2.46795e-297
1.22415e-297
5.93378e-298
2.80471e-298
1.28971e-298
5.75499e-299
2.4851e-299
1.03529e-299
4.14673e-300
1.59072e-300
5.81824e-301
2.01838e-301
6.59186e-302
1.98234e-302
5.86959e-303
1.71154e-303
4.91653e-304
1.39185e-304
3.88492e-305
1.06963e-305
2.90638e-306
7.79979e-307
2.06924e-307
5.42339e-308
1.4179e-308
3.82638e-309
1.12805e-309
5.4988e-310
6.07972e-310
5.71227e-310
3.5354e-310
1.66941e-310
-1.25484e-310
-2.80102e-310
9.19923e-311
2.40124e-310
2.95079e-310
4.6718e-310
5.9007e-310
5.39547e-310
2.61875e-310
6.58968e-311
1.47947e-310
1.64269e-312
4.8599e-311
-4.50603e-312
-3.74303e-312
-8.19529e-311
-2.1015e-310
-3.62742e-310
-3.92238e-310
-4.64878e-310
-6.0808e-310
2.68523e-290
2.07054e-290
1.39025e-290
8.57078e-291
5.02296e-291
2.85975e-291
1.60258e-291
8.90984e-292
4.93799e-292
2.73583e-292
1.51763e-292
8.43517e-293
4.69822e-293
2.62158e-293
1.46466e-293
8.18653e-294
4.57328e-294
2.55056e-294
1.41834e-294
7.85381e-295
4.32429e-295
2.36388e-295
1.28092e-295
6.86891e-296
3.6389e-296
1.90103e-296
9.7752e-297
4.93779e-297
2.44522e-297
1.18451e-297
5.60013e-298
2.57768e-298
1.15207e-298
4.98535e-299
2.08211e-299
8.36322e-300
3.21798e-300
1.18079e-300
4.10986e-301
1.34685e-301
4.06579e-302
1.20745e-302
3.52897e-303
1.01553e-303
2.8789e-304
8.04427e-305
2.21681e-305
6.02867e-306
1.61914e-306
4.29842e-307
1.12873e-307
2.94814e-308
7.87872e-309
1.84834e-309
6.76493e-310
5.7372e-310
6.13097e-310
4.2053e-310
3.66366e-310
9.94205e-311
8.8071e-312
3.23005e-310
2.89102e-310
3.72199e-310
4.56883e-310
5.48722e-310
3.48244e-310
2.93423e-310
2.45942e-310
2.96012e-310
1.59974e-310
-6.51426e-312
3.8314e-311
1.29892e-311
-3.8449e-310
-3.32381e-310
-1.35097e-310
1.02546e-310
3.74462e-310
3.3771e-310
6.83116e-290
5.32574e-290
3.62543e-290
2.25946e-290
1.33149e-290
7.57807e-291
4.22244e-291
2.3235e-291
1.26983e-291
6.91757e-292
3.76502e-292
2.05014e-292
1.11765e-292
6.1014e-293
3.33494e-293
1.82428e-293
9.98047e-294
5.45623e-294
2.97765e-294
1.62028e-294
8.77958e-295
4.73057e-295
2.53072e-295
1.342e-295
7.04189e-296
3.64966e-296
1.86467e-296
9.37239e-297
4.62449e-297
2.23489e-297
1.05532e-297
4.85655e-298
2.17216e-298
9.41419e-299
3.94079e-299
1.58758e-299
6.13049e-300
2.2589e-300
7.90001e-301
2.60317e-301
7.91175e-302
2.36354e-302
6.94401e-303
2.00764e-303
5.71574e-304
1.60347e-304
4.43564e-305
1.21082e-305
3.26391e-306
8.69801e-307
2.29606e-307
6.01073e-308
1.56942e-308
3.99807e-309
1.14936e-309
6.28001e-310
4.46083e-310
2.27685e-310
1.45991e-310
2.46655e-310
2.06832e-310
2.67524e-310
4.31415e-310
5.45908e-310
5.87975e-310
4.30206e-310
3.51392e-310
5.3834e-310
6.50715e-310
6.4692e-310
4.41298e-310
1.92959e-310
-1.05093e-310
-3.75997e-310
-5.44664e-310
-2.89619e-310
2.12607e-310
3.52711e-310
3.71992e-310
3.08446e-310
1.69753e-289
1.33566e-289
9.20175e-290
5.79252e-290
3.43313e-290
1.95525e-290
1.08481e-290
5.91778e-291
3.19417e-291
1.71329e-291
9.15904e-292
4.88957e-292
2.60994e-292
1.39389e-292
7.45055e-293
3.98549e-293
2.13287e-293
1.14129e-293
6.10161e-294
3.25611e-294
1.73252e-294
9.17978e-295
4.83664e-295
2.53009e-295
1.31181e-295
6.72908e-296
3.40831e-296
1.70104e-296
8.34686e-297
4.01737e-297
1.89185e-297
8.69366e-298
3.88736e-298
1.68621e-298
7.0718e-299
2.85713e-299
1.10754e-299
4.10066e-300
1.44258e-300
4.78733e-301
1.46838e-301
4.42322e-302
1.3095e-302
3.81305e-303
1.0929e-303
3.08583e-304
8.59019e-305
2.35961e-305
6.40113e-306
1.71679e-306
4.55781e-307
1.20213e-307
3.13885e-308
8.38402e-309
2.2743e-309
7.2073e-310
2.28778e-310
8.92424e-311
1.8549e-311
2.44126e-310
3.19913e-310
4.90229e-310
7.01357e-310
7.09198e-310
6.46006e-310
3.00593e-310
3.89195e-310
5.78068e-310
6.42837e-310
4.61139e-310
1.91701e-310
8.59539e-311
-2.10445e-310
-4.63311e-310
-3.55576e-310
-2.81303e-310
-3.86219e-311
-1.42371e-310
-3.11892e-310
-3.67088e-310
4.13623e-289
3.27968e-289
2.28293e-289
1.45016e-289
8.64308e-290
4.92854e-290
2.7256e-290
1.47586e-290
7.87798e-291
4.16565e-291
2.1896e-291
1.14693e-291
5.99727e-292
3.13408e-292
1.63796e-292
8.56403e-293
4.4796e-293
2.34358e-293
1.22573e-293
6.40454e-294
3.34018e-294
1.73689e-294
8.994e-295
4.63111e-295
2.36739e-295
1.19933e-295
6.00966e-296
2.97232e-296
1.44777e-296
6.92815e-297
3.24893e-297
1.48895e-297
6.64924e-298
2.88441e-298
1.21134e-298
4.90693e-299
1.90958e-299
7.10734e-300
2.517e-300
8.42261e-301
2.61195e-301
7.9488e-302
2.37597e-302
6.98188e-303
2.01878e-303
5.74893e-304
1.61386e-304
4.47034e-305
1.22303e-305
3.3084e-306
8.85883e-307
2.35401e-307
6.21144e-308
1.64939e-308
4.63486e-309
1.30387e-309
2.32531e-310
1.01123e-310
3.3015e-310
5.78871e-310
6.87552e-310
7.67366e-310
6.22608e-310
4.91012e-310
3.90328e-310
2.42855e-310
5.6652e-310
6.37497e-310
6.26983e-310
1.89275e-310
-1.19367e-310
-2.10724e-310
-4.33066e-310
-3.75547e-310
-7.61316e-311
-1.28886e-310
-1.99715e-310
-1.0853e-311
-1.18673e-310
-2.50422e-310
9.91332e-289
7.91141e-289
5.55619e-289
3.55786e-289
2.13168e-289
1.21739e-289
6.71555e-290
3.61307e-290
1.90942e-290
9.96432e-291
5.15501e-291
2.65167e-291
1.35911e-291
6.95215e-292
3.55288e-292
1.81527e-292
9.27599e-293
4.741e-293
2.42323e-293
1.2381e-293
6.3195e-294
3.21961e-294
1.63553e-294
8.27368e-295
4.16179e-295
2.07815e-295
1.0282e-295
5.0302e-296
2.42787e-296
1.15332e-296
5.37805e-297
2.45497e-297
1.09376e-297
4.74101e-298
1.99257e-298
8.09002e-299
3.16039e-299
1.18269e-299
4.21856e-300
1.42468e-300
4.47297e-301
1.37723e-301
4.16284e-302
1.23648e-302
3.61273e-303
1.03939e-303
2.94755e-304
8.24782e-305
2.2797e-305
6.23099e-306
1.68617e-306
4.52345e-307
1.20699e-307
3.21815e-308
8.84177e-309
2.58692e-309
5.6225e-310
1.46431e-310
4.57109e-310
7.46539e-310
9.76942e-310
9.92963e-310
6.65335e-310
3.29691e-310
2.3102e-310
3.39497e-310
5.55714e-310
6.20856e-310
3.34528e-310
2.83099e-310
1.16243e-310
-3.23039e-312
-1.12204e-310
-6.90658e-311
5.7298e-311
-3.44992e-311
-8.42256e-311
-5.12929e-311
2.53788e-311
-2.22344e-311
2.34309e-288
1.88012e-288
1.33052e-288
8.58028e-289
5.16555e-289
2.9547e-289
1.62666e-289
8.7026e-290
4.5577e-290
2.34969e-290
1.19761e-290
6.0547e-291
3.04406e-291
1.5249e-291
7.6222e-292
3.80564e-292
1.89928e-292
9.47845e-293
4.73078e-293
2.36114e-293
1.17802e-293
5.87179e-294
2.92154e-294
1.4495e-294
7.16185e-295
3.51858e-295
1.71584e-295
8.28876e-296
3.95775e-296
1.8634e-296
8.62831e-297
3.91822e-297
1.73976e-297
7.52886e-298
3.1646e-298
1.28723e-298
5.04684e-299
1.899e-299
6.82442e-300
2.32733e-300
7.40468e-301
2.30919e-301
7.06638e-302
2.12423e-302
6.27996e-303
1.82784e-303
5.24362e-304
1.48432e-304
4.15081e-305
1.14806e-305
3.14444e-306
8.54024e-307
2.30758e-307
6.21917e-308
1.70109e-308
4.85194e-309
1.27311e-309
5.00244e-310
6.17518e-310
8.94298e-310
1.08839e-309
9.2487e-310
8.08064e-310
6.56137e-310
5.53422e-310
3.70433e-310
2.79396e-310
3.12723e-310
1.74851e-310
1.64217e-310
1.20951e-310
1.8409e-311
4.42579e-311
1.34819e-310
1.33869e-310
1.12391e-310
1.3385e-310
-2.61143e-310
-2.7921e-310
-1.98581e-310
5.47338e-288
4.41209e-288
3.14279e-288
2.03924e-288
1.23297e-288
7.06348e-289
3.88225e-289
2.06671e-289
1.07353e-289
5.47273e-290
2.75066e-290
1.36802e-290
6.75164e-291
3.31423e-291
1.62099e-291
7.91045e-292
3.85556e-292
1.87824e-292
9.14919e-293
4.45722e-293
2.17154e-293
1.05769e-293
5.14742e-294
2.50096e-294
1.21182e-294
5.84791e-295
2.806e-295
1.33625e-295
6.30191e-296
2.93639e-296
1.34829e-296
6.08352e-297
2.68915e-297
1.1608e-297
4.87626e-298
1.98611e-298
7.81266e-299
2.95551e-299
1.07019e-299
3.68669e-300
1.18933e-300
3.75936e-301
1.16567e-301
3.54974e-302
1.0629e-302
3.13307e-303
9.10224e-304
2.60946e-304
7.39114e-305
2.07103e-305
5.74826e-306
1.58266e-306
4.3329e-307
1.18209e-307
3.23161e-308
8.80758e-309
2.48742e-309
8.8244e-310
7.18005e-310
1.03277e-309
1.08424e-309
7.68876e-310
8.55131e-310
9.45926e-310
8.73802e-310
4.28625e-310
1.72739e-310
1.89689e-310
2.62949e-310
1.43673e-310
2.46978e-310
-1.9684e-310
-2.81828e-310
-2.03992e-310
-1.62134e-310
4.00796e-311
6.0858e-311
-2.88622e-311
-1.39243e-310
-1.64813e-310
1.26594e-287
1.02443e-287
7.3379e-288
4.78676e-288
2.90519e-288
1.66673e-288
9.14788e-289
4.84834e-289
2.49972e-289
1.26121e-289
6.25683e-290
3.06391e-290
1.48565e-290
7.15137e-291
3.42445e-291
1.63398e-291
7.77908e-292
3.69895e-292
1.75799e-292
8.35523e-293
3.97192e-293
1.88858e-293
8.97936e-294
4.26669e-294
2.02448e-294
9.5812e-295
4.51643e-295
2.11685e-295
9.84532e-296
4.53334e-296
2.0613e-296
9.22965e-297
4.05727e-297
1.74533e-297
7.32171e-298
2.98434e-298
1.17732e-298
4.47663e-299
1.63321e-299
5.68383e-300
1.85968e-300
5.96064e-301
1.87377e-301
5.78414e-302
1.75546e-302
5.24456e-303
1.5443e-303
4.48751e-304
1.28854e-304
3.66083e-305
1.03051e-305
2.87833e-306
7.99178e-307
2.21192e-307
6.10343e-308
1.68578e-308
4.89214e-309
1.73677e-309
8.3386e-310
8.69773e-310
8.46087e-310
7.68312e-310
8.84253e-310
9.88079e-310
8.74712e-310
6.02618e-310
3.67022e-310
3.39774e-310
1.52168e-310
1.16617e-311
9.80504e-311
-1.06339e-310
-2.20867e-310
-2.65865e-310
-2.34257e-310
-2.98832e-310
-5.0149e-310
-4.43121e-310
-4.47133e-310
-5.28325e-310
2.90354e-287
2.35728e-287
1.69654e-287
1.11181e-287
6.77029e-288
3.88915e-288
2.13196e-288
1.12546e-288
5.76353e-289
2.88038e-289
1.41172e-289
6.81309e-290
3.24862e-290
1.53471e-290
7.20003e-291
3.36094e-291
1.56349e-291
7.25769e-292
3.36523e-292
1.55984e-292
7.23143e-293
3.35407e-293
1.55644e-293
7.22436e-294
3.35222e-294
1.55367e-294
7.18396e-295
3.30891e-295
1.51536e-295
6.88512e-296
3.09595e-296
1.37392e-296
5.9994e-297
2.56935e-297
1.07549e-297
4.38404e-298
1.7336e-298
6.6232e-299
2.43398e-299
8.55657e-300
2.83939e-300
9.22978e-301
2.94245e-301
9.21103e-302
2.83484e-302
8.58854e-303
2.5647e-303
7.55874e-304
2.20161e-304
6.34609e-305
1.81284e-305
5.13994e-306
1.4488e-306
4.0701e-307
1.14174e-307
3.21565e-308
9.52116e-309
3.21422e-309
1.14484e-309
8.06311e-310
8.49791e-310
1.04916e-309
1.05742e-309
1.03119e-309
9.30389e-310
6.49581e-310
4.57279e-310
2.24448e-310
3.32102e-311
9.15561e-311
-1.38946e-310
-6.44117e-312
-6.97391e-312
-1.95161e-310
-3.74119e-310
-5.87631e-310
-7.21947e-310
-8.05341e-310
-7.92602e-310
-7.53412e-310
6.61246e-287
5.38323e-287
3.89e-287
2.55935e-287
1.56298e-287
8.98854e-288
4.92201e-288
2.58909e-288
1.31776e-288
6.52843e-289
3.16393e-289
1.5063e-289
7.0696e-290
3.28076e-290
1.50921e-290
6.89691e-291
3.13674e-291
1.42198e-291
6.43359e-292
2.90812e-292
1.3144e-292
5.9436e-293
2.68982e-293
1.21836e-293
5.52212e-294
2.50307e-294
1.13365e-294
5.12358e-295
2.30695e-295
1.03275e-295
4.58586e-296
2.01439e-296
8.72712e-297
3.71708e-297
1.55111e-297
6.31841e-298
2.5029e-298
9.60308e-299
3.55352e-299
1.26154e-299
4.24469e-300
1.39926e-300
4.52422e-301
1.43648e-301
4.48439e-302
1.3782e-302
4.17529e-303
1.24857e-303
3.69046e-304
1.07971e-304
3.13127e-305
9.01552e-306
2.5812e-306
7.36486e-307
2.1e-307
5.99521e-308
1.74188e-308
5.01631e-309
1.68834e-309
8.79286e-310
8.32054e-310
9.25358e-310
1.06023e-309
1.09243e-309
1.05544e-309
7.46138e-310
5.17823e-310
2.94324e-310
1.64416e-310
2.45371e-310
-7.61975e-311
-1.65918e-310
-3.2802e-310
-3.56012e-310
-6.74768e-310
-8.26978e-310
-7.32103e-310
-7.67103e-310
-8.7542e-310
-8.65164e-310
1.49691e-286
1.22148e-286
8.85688e-287
5.84686e-287
3.5795e-287
2.06051e-287
1.1272e-287
5.91041e-288
2.99153e-288
1.47029e-288
7.05226e-289
3.3153e-289
1.5331e-289
6.99574e-290
3.15852e-290
1.41428e-290
6.29315e-291
2.78766e-291
1.23115e-291
5.42797e-292
2.39162e-292
1.05403e-292
4.64941e-293
2.05348e-293
9.08185e-294
4.02117e-294
1.78143e-294
7.88855e-295
3.48686e-295
1.53566e-295
6.72391e-296
2.91941e-296
1.25329e-296
5.30279e-297
2.20375e-297
8.963e-298
3.55409e-298
1.36861e-298
5.09685e-299
1.82647e-299
6.22846e-300
2.08162e-300
6.82529e-301
2.19801e-301
6.96071e-302
2.1704e-302
6.672e-303
2.02482e-303
6.07487e-304
1.80437e-304
5.31364e-305
1.55384e-305
4.5195e-306
1.30988e-306
3.79222e-307
1.09956e-307
3.18934e-308
9.33304e-309
3.15658e-309
1.42866e-309
9.29987e-310
7.15412e-310
7.6177e-310
8.61221e-310
1.00688e-309
7.96055e-310
6.45759e-310
5.92178e-310
3.75798e-310
1.60856e-310
-5.80197e-311
-3.02444e-310
-4.58837e-310
-4.52998e-310
-5.22205e-310
-5.70653e-310
-6.78275e-310
-6.82781e-310
-8.41669e-310
-8.57266e-310
3.37156e-286
2.75658e-286
2.0046e-286
1.32714e-286
8.14204e-287
4.6907e-287
2.56375e-287
1.34043e-287
6.75056e-288
3.29386e-288
1.565e-288
7.2718e-289
3.31669e-289
1.48974e-289
6.60828e-290
2.90212e-290
1.26456e-290
5.47775e-291
2.36288e-291
1.01652e-291
4.36713e-292
1.87574e-292
8.06214e-293
3.47003e-293
1.49627e-293
6.46449e-294
2.79775e-294
1.21215e-294
5.25173e-295
2.27191e-295
9.79376e-296
4.19692e-296
1.78286e-296
7.48416e-297
3.09409e-297
1.25521e-297
4.97806e-298
1.92252e-298
7.2008e-299
2.60317e-299
8.9912e-300
3.04518e-300
1.01222e-300
3.30566e-301
1.06185e-301
3.35906e-302
1.04782e-302
3.2274e-303
9.82912e-304
2.96415e-304
8.86453e-305
2.633e-305
7.78055e-306
2.29124e-306
6.73581e-307
1.98365e-307
5.8829e-308
1.77523e-308
5.62287e-309
2.31036e-309
1.34669e-309
1.13396e-309
8.82904e-310
6.15098e-310
8.63086e-310
9.49615e-310
7.5225e-310
5.05624e-310
3.6366e-310
2.24675e-310
1.49628e-311
-2.81332e-310
-5.08366e-310
-6.84191e-310
-7.16977e-310
-6.95854e-310
-9.23754e-310
-1.03608e-309
-1.07457e-309
-1.01624e-309
7.56153e-286
6.19253e-286
4.51432e-286
2.99596e-286
1.84134e-286
1.06152e-286
5.79714e-287
3.02317e-287
1.51565e-287
7.34718e-288
3.46086e-288
1.59098e-288
7.1647e-289
3.17122e-289
1.38362e-289
5.96616e-290
2.54839e-290
1.08051e-290
4.55609e-291
1.91379e-291
8.0203e-292
3.35796e-292
1.40626e-292
5.89654e-293
2.47743e-293
1.0435e-293
4.40691e-294
1.86558e-294
7.91089e-295
3.35619e-295
1.42212e-295
6.00529e-296
2.52051e-296
1.04829e-296
4.30577e-297
1.74036e-297
6.89624e-298
2.66866e-298
1.00449e-298
3.66056e-299
1.27957e-299
4.38904e-300
1.47835e-300
4.89429e-301
1.5943e-301
5.11592e-302
1.61918e-302
5.06126e-303
1.56463e-303
4.79041e-304
1.45476e-304
4.38877e-305
1.31745e-305
3.94209e-306
1.17768e-306
3.5194e-307
1.05734e-307
3.19848e-308
9.9284e-309
3.7162e-309
1.73912e-309
1.17421e-309
1.15929e-309
1.00804e-309
8.2962e-310
1.14882e-309
8.65339e-310
3.95184e-310
1.66603e-310
6.78554e-311
-1.88597e-310
-4.21773e-310
-5.73061e-310
-7.93003e-310
-7.84896e-310
-1.00757e-309
-1.15062e-309
-1.19447e-309
-1.33409e-309
-1.36847e-309
1.68976e-285
1.38576e-285
1.0123e-285
6.73208e-286
4.14385e-286
2.39024e-286
1.30437e-286
6.78654e-287
3.38868e-287
1.63303e-287
7.63248e-288
3.47467e-288
1.54661e-288
6.75341e-289
2.9016e-289
1.22993e-289
5.15584e-290
2.14209e-290
8.8382e-291
3.62802e-291
1.48419e-291
6.06032e-292
2.47347e-292
1.01035e-292
4.13483e-293
1.6968e-293
6.98599e-294
2.88612e-294
1.19609e-294
4.96852e-295
2.06591e-295
8.58195e-296
3.55297e-296
1.46173e-296
5.95648e-297
2.39559e-297
9.47348e-298
3.66949e-298
1.38669e-298
5.08945e-299
1.79876e-299
6.24391e-300
2.12984e-300
7.14467e-301
2.35925e-301
7.67711e-302
2.46473e-302
7.8171e-303
2.45251e-303
7.62218e-304
2.35014e-304
7.19977e-305
2.19512e-305
6.67186e-306
2.02527e-306
6.1482e-307
1.87199e-307
5.74231e-308
1.80908e-308
6.1996e-309
2.40344e-309
1.46765e-309
1.3315e-309
1.24047e-309
1.11551e-309
1.18203e-309
6.70631e-310
2.44397e-310
-1.40612e-311
-1.11948e-310
-2.17834e-310
-4.37222e-310
-5.37632e-310
-6.87943e-310
-8.75157e-310
-1.08362e-309
-1.05987e-309
-1.19271e-309
-1.3851e-309
-1.40237e-309
3.76461e-285
3.09095e-285
2.2619e-285
1.50683e-285
9.28698e-286
5.35926e-286
2.92258e-286
1.51748e-286
7.54993e-287
3.61923e-287
1.67973e-287
7.57979e-288
3.3382e-288
1.43967e-288
6.09852e-289
2.54433e-289
1.04806e-289
4.27206e-290
1.72676e-290
6.93446e-291
2.77179e-291
1.10464e-291
4.39625e-292
1.74985e-292
6.9752e-293
2.78779e-293
1.11817e-293
4.50354e-294
1.82166e-294
7.3976e-295
3.01318e-295
1.22911e-295
5.01026e-296
2.03545e-296
8.21532e-297
3.28267e-297
1.29376e-297
5.00987e-298
1.89859e-298
7.01047e-299
2.50239e-299
8.78254e-300
3.03159e-300
1.02982e-300
3.4455e-301
1.13649e-301
3.69984e-302
1.19025e-302
3.78876e-303
1.19498e-303
3.73988e-304
1.16319e-304
3.601e-305
1.11148e-305
3.42654e-306
1.05723e-306
3.27087e-307
1.01951e-307
3.24416e-308
1.06551e-308
3.76653e-309
1.8701e-309
1.18499e-309
9.50537e-310
9.54868e-310
8.51424e-310
4.96355e-310
7.4847e-311
7.71514e-311
8.37985e-311
1.5351e-311
-1.71388e-310
-6.04745e-310
-9.65292e-310
-1.2523e-309
-1.52947e-309
-1.49003e-309
-1.59718e-309
-1.64652e-309
-1.62481e-309
8.36581e-285
6.87556e-285
5.03879e-285
3.36164e-285
2.07407e-285
1.19731e-285
6.52527e-286
3.38193e-286
1.67725e-286
8.00263e-287
3.69086e-287
1.65236e-287
7.2076e-288
3.07357e-288
1.28523e-288
5.28434e-289
2.14174e-289
8.57642e-290
3.40045e-290
1.33762e-290
5.23012e-291
2.03641e-291
7.9094e-292
3.06952e-292
1.19215e-292
4.64039e-293
1.81254e-293
7.11147e-294
2.80443e-294
1.11174e-294
4.42835e-295
1.77047e-295
7.09212e-296
2.83962e-296
1.13307e-296
4.49043e-297
1.76097e-297
6.80728e-298
2.58363e-298
9.58584e-299
3.45138e-299
1.22343e-299
4.26979e-300
1.4677e-300
4.97225e-301
1.66159e-301
5.48265e-302
1.78834e-302
5.77357e-303
1.84737e-303
5.86669e-304
1.85186e-304
5.81933e-305
1.82349e-305
5.70751e-306
1.78791e-306
5.61666e-307
1.77493e-307
5.69049e-308
1.85198e-308
6.34552e-309
2.47481e-309
1.40511e-309
1.09637e-309
6.98625e-310
3.14868e-310
4.62877e-310
3.06089e-310
3.03437e-310
2.07414e-310
9.31018e-311
-2.75913e-310
-7.3025e-310
-1.09173e-309
-1.25874e-309
-1.59533e-309
-1.96836e-309
-2.02552e-309
-1.93537e-309
-1.95506e-309
1.85509e-284
1.52589e-284
1.11963e-284
7.47878e-285
4.61837e-285
2.66683e-285
1.45258e-285
7.51634e-286
3.71719e-286
1.76623e-286
8.10059e-287
3.60097e-287
1.55726e-287
6.57349e-288
2.71664e-288
1.10221e-288
4.40139e-289
1.73388e-289
6.75298e-290
2.60559e-290
9.9792e-291
3.80084e-291
1.44228e-291
5.46241e-292
2.0684e-292
7.84382e-293
2.98357e-293
1.13987e-293
4.37874e-294
1.69238e-294
6.58183e-295
2.57429e-295
1.01129e-295
3.98225e-296
1.56766e-296
6.14966e-297
2.39527e-297
9.22758e-298
3.50206e-298
1.30369e-298
4.72787e-299
1.69062e-299
5.95942e-300
2.07107e-300
7.09931e-301
2.40198e-301
8.02869e-302
2.65396e-302
8.68614e-303
2.81838e-303
9.07834e-304
2.9072e-304
9.26971e-305
2.94764e-305
9.36343e-306
2.97666e-306
9.48912e-307
3.03961e-307
9.82853e-308
3.21768e-308
1.09424e-308
3.99173e-309
1.83293e-309
1.2205e-309
6.79525e-310
1.98527e-310
3.98812e-310
4.64276e-310
3.66097e-310
1.4577e-310
1.29219e-310
-1.78123e-310
-5.68064e-310
-9.23428e-310
-1.30943e-309
-1.61144e-309
-1.98736e-309
-2.14555e-309
-2.00865e-309
-1.9891e-309
4.10621e-284
3.37988e-284
2.48256e-284
1.65996e-284
1.02583e-284
5.92484e-285
3.22552e-285
1.66667e-285
8.22207e-286
3.89246e-286
1.77644e-286
7.84737e-287
3.36768e-287
1.40865e-287
5.76035e-288
2.30917e-288
9.09742e-289
3.53064e-289
1.35272e-289
5.12714e-290
1.92624e-290
7.18696e-291
2.66802e-291
9.87297e-292
3.64855e-292
1.34896e-292
4.99869e-293
1.85958e-293
6.95526e-294
2.61847e-294
9.92906e-295
3.7924e-295
1.45802e-295
5.63393e-296
2.18308e-296
8.45785e-297
3.26495e-297
1.25103e-297
4.73906e-298
1.76713e-298
6.44425e-299
2.32135e-299
8.25492e-300
2.89752e-300
1.0041e-300
3.4371e-301
1.16303e-301
3.89383e-302
1.29129e-302
4.24666e-303
1.38682e-303
4.50347e-304
1.45637e-304
4.69752e-305
1.51375e-305
4.88197e-306
1.57873e-306
5.13094e-307
1.67994e-307
5.57042e-308
1.90531e-308
6.74836e-309
2.61432e-309
1.04581e-309
3.59858e-310
3.83623e-310
4.70205e-310
5.03695e-310
1.23463e-310
6.82037e-311
-1.28685e-310
-4.69574e-310
-9.20003e-310
-1.2574e-309
-1.6259e-309
-1.77928e-309
-1.82187e-309
-1.94867e-309
-1.89556e-309
-1.85559e-309
9.07538e-284
7.47441e-284
5.49473e-284
3.67716e-284
2.27382e-284
1.3135e-284
7.14747e-285
3.6886e-285
1.81573e-285
8.56847e-286
3.89355e-286
1.71045e-286
7.29056e-287
3.0249e-287
1.22533e-287
4.85924e-288
1.89124e-288
7.24104e-289
2.73323e-289