/*--------------------------------*- C++ -*----------------------------------*\
  =========                 |
  \\      /  F ield         | OpenFOAM: The Open Source CFD Toolbox
   \\    /   O peration     | Website:  https://openfoam.org
    \\  /    A nd           | Version:  11
     \\/     M anipulation  |
\*---------------------------------------------------------------------------*/
FoamFile
{
    format      ascii;
    class       volScalarField;
    location    "100";
    object      C;
}
// * * * * * * * * * * * * * * * * * * * * * * * * * * * * * * * * * * * * * //

dimensions      [0 0 0 1 0 0 0];

internalField   nonuniform List<scalar> 
427520
(
-3.87556e-270
-3.60812e-270
-3.09691e-270
-2.51307e-270
-1.95682e-270
-1.47746e-270
-1.09013e-270
-7.90444e-271
-5.65376e-271
-3.99881e-271
-2.80088e-271
-1.94452e-271
-1.33875e-271
-9.1425e-272
-6.19381e-272
-4.16274e-272
-2.77521e-272
-1.83506e-272
-1.20325e-272
-7.82197e-273
-5.03971e-273
-3.21724e-273
-2.03421e-273
-1.27339e-273
-7.88844e-274
-4.83359e-274
-2.92798e-274
-1.7524e-274
-1.0356e-274
-6.03887e-275
-3.47221e-275
-1.96699e-275
-1.09692e-275
-6.01645e-276
-3.24242e-276
-1.71519e-276
-8.89567e-277
-4.51788e-277
-2.2436e-277
-1.08723e-277
-5.12343e-278
-2.36826e-278
-1.07637e-278
-4.8179e-279
-2.12629e-279
-9.26031e-280
-3.98247e-280
-1.6921e-280
-7.10589e-281
-2.95037e-281
-1.21148e-281
-4.92074e-282
-1.97743e-282
-7.86305e-283
-3.09421e-283
-1.20507e-283
-4.64527e-284
-1.77237e-284
-6.69342e-285
-2.50198e-285
-9.25633e-286
-3.38913e-286
-1.22803e-286
-4.40411e-287
-1.56472e-287
-5.53216e-288
-1.98428e-288
-7.77134e-289
-4.0501e-289
-3.41273e-289
-4.08875e-289
-5.5546e-289
-7.73719e-289
-1.07258e-288
-1.46452e-288
-1.95576e-288
-2.53384e-288
-3.15161e-288
-3.70811e-288
-4.02663e-288
-2.77103e-269
-2.16119e-269
-1.6582e-269
-1.26139e-269
-9.5061e-270
-7.08867e-270
-5.2262e-270
-3.80855e-270
-2.74397e-270
-1.95543e-270
-1.37905e-270
-9.62981e-271
-6.661e-271
-4.5655e-271
-3.10141e-271
-2.08836e-271
-1.39393e-271
-9.22229e-272
-6.04714e-272
-3.92907e-272
-2.52903e-272
-1.61217e-272
-1.01744e-272
-6.35438e-273
-3.92562e-273
-2.39772e-273
-1.44711e-273
-8.62497e-274
-5.07319e-274
-2.9428e-274
-1.68214e-274
-9.46708e-275
-5.24119e-275
-2.85152e-275
-1.52298e-275
-7.9759e-276
-4.09067e-276
-2.0518e-276
-1.00479e-276
-4.79214e-277
-2.21334e-277
-1.00566e-277
-4.50114e-278
-1.98651e-278
-8.65151e-279
-3.7204e-279
-1.58049e-279
-6.63541e-280
-2.75396e-280
-1.13025e-280
-4.58795e-281
-1.84232e-281
-7.31953e-282
-2.87756e-282
-1.11952e-282
-4.31058e-283
-1.6427e-283
-6.19603e-284
-2.31313e-284
-8.54697e-285
-3.12561e-285
-1.13124e-285
-4.05207e-286
-1.437e-286
-5.05401e-287
-1.77618e-287
-6.43488e-288
-2.68219e-288
-1.62446e-288
-1.58293e-288
-2.00988e-288
-2.75883e-288
-3.83077e-288
-5.28769e-288
-7.22485e-288
-9.76546e-288
-1.3066e-287
-1.73262e-287
-2.27871e-287
-2.94721e-287
-1.37783e-268
-1.02951e-268
-7.33737e-269
-5.23626e-269
-3.75916e-269
-2.70834e-269
-1.95177e-269
-1.40291e-269
-1.00363e-269
-7.13509e-270
-5.03568e-270
-3.52583e-270
-2.44806e-270
-1.68509e-270
-1.1497e-270
-7.77389e-271
-5.20867e-271
-3.45764e-271
-2.27361e-271
-1.48062e-271
-9.54641e-272
-6.09224e-272
-3.84676e-272
-2.40224e-272
-1.48301e-272
-9.04583e-273
-5.44863e-273
-3.23881e-273
-1.89864e-273
-1.09681e-273
-6.23863e-274
-3.49081e-274
-1.91961e-274
-1.0363e-274
-5.4857e-275
-2.8438e-275
-1.44171e-275
-7.13654e-276
-3.44269e-276
-1.6136e-276
-7.29155e-277
-3.24884e-277
-1.42827e-277
-6.19879e-278
-2.65712e-278
-1.12535e-278
-4.71063e-279
-1.94939e-279
-7.97728e-280
-3.22875e-280
-1.29275e-280
-5.12115e-281
-2.00747e-281
-7.7878e-282
-2.99025e-282
-1.13649e-282
-4.27585e-283
-1.5926e-283
-5.87272e-284
-2.14411e-284
-7.75099e-285
-2.7747e-285
-9.83856e-286
-3.45824e-286
-1.20869e-286
-4.25267e-287
-1.58049e-287
-7.21432e-288
-5.11532e-288
-5.5699e-288
-7.35243e-288
-1.02172e-287
-1.43184e-287
-2.00445e-287
-2.8018e-287
-3.91926e-287
-5.50383e-287
-7.77703e-287
-1.10015e-286
-1.48284e-286
-5.41627e-268
-4.10172e-268
-2.85454e-268
-1.95686e-268
-1.34711e-268
-9.34493e-269
-6.52426e-269
-4.57283e-269
-3.20936e-269
-2.25029e-269
-1.57334e-269
-1.09524e-269
-7.58166e-270
-5.21403e-270
-3.55961e-270
-2.4109e-270
-1.61912e-270
-1.07771e-270
-7.10657e-271
-4.6407e-271
-2.99981e-271
-1.91872e-271
-1.21378e-271
-7.59051e-272
-4.69009e-272
-2.86171e-272
-1.72319e-272
-1.02332e-272
-5.98877e-273
-3.45113e-273
-1.95656e-273
-1.09021e-273
-5.9642e-274
-3.1997e-274
-1.68121e-274
-8.63932e-275
-4.33513e-275
-2.12044e-275
-1.00881e-275
-4.6519e-276
-2.05918e-276
-9.00179e-277
-3.88741e-277
-1.65882e-277
-6.9961e-278
-2.9169e-278
-1.2025e-278
-4.90267e-279
-1.97717e-279
-7.88841e-280
-3.11418e-280
-1.21667e-280
-4.70482e-281
-1.80102e-281
-6.8259e-282
-2.5617e-282
-9.52113e-283
-3.50515e-283
-1.27837e-283
-4.61979e-284
-1.65467e-284
-5.87589e-285
-2.07001e-285
-7.24532e-286
-2.53199e-286
-9.00071e-287
-3.48565e-287
-1.77254e-287
-1.44782e-287
-1.71042e-287
-2.33242e-287
-3.30464e-287
-4.72628e-287
-6.78669e-287
-9.79172e-287
-1.42234e-286
-2.08235e-286
-3.06114e-286
-4.42988e-286
-5.88429e-286
-1.83878e-267
-1.42609e-267
-9.95591e-268
-6.71253e-268
-4.49856e-268
-3.02756e-268
-2.05145e-268
-1.39884e-268
-9.58325e-269
-6.58333e-269
-4.52617e-269
-3.10884e-269
-2.12995e-269
-1.45363e-269
-9.87043e-270
-6.66157e-270
-4.46466e-270
-2.96913e-270
-1.9579e-270
-1.27935e-270
-8.27853e-271
-5.30178e-271
-3.35841e-271
-2.10292e-271
-1.3008e-271
-7.94352e-272
-4.7854e-272
-2.84182e-272
-1.66224e-272
-9.56802e-273
-5.41454e-273
-3.00922e-273
-1.64057e-273
-8.76261e-274
-4.57892e-274
-2.33729e-274
-1.16342e-274
-5.63627e-275
-2.65113e-275
-1.206e-275
-5.24647e-276
-2.25611e-276
-9.59103e-277
-4.03119e-277
-1.67539e-277
-6.88614e-278
-2.79947e-278
-1.12586e-278
-4.47993e-279
-1.76405e-279
-6.87517e-280
-2.65256e-280
-1.01331e-280
-3.83355e-281
-1.4366e-281
-5.33397e-282
-1.96269e-282
-7.15926e-283
-2.58965e-283
-9.29276e-284
-3.30969e-284
-1.17072e-284
-4.11714e-285
-1.44284e-285
-5.07463e-286
-1.83803e-286
-7.49829e-287
-4.25304e-287
-3.89616e-287
-4.8917e-287
-6.87488e-287
-9.97311e-287
-1.46217e-286
-2.1583e-286
-3.20811e-286
-4.80211e-286
-7.21824e-286
-1.07809e-285
-1.55383e-285
-2.01374e-285
-5.63351e-267
-4.47071e-267
-3.1653e-267
-2.13111e-267
-1.40921e-267
-9.29116e-268
-6.14649e-268
-4.08811e-268
-2.73362e-268
-1.83587e-268
-1.2366e-268
-8.34144e-269
-5.62635e-269
-3.78936e-269
-2.54497e-269
-1.70236e-269
-1.1329e-269
-7.49301e-270
-4.92082e-270
-3.20592e-270
-2.07034e-270
-1.32421e-270
-8.38222e-271
-5.24699e-271
-3.24544e-271
-1.98197e-271
-1.19405e-271
-7.09044e-272
-4.14613e-272
-2.38509e-272
-1.34833e-272
-7.48194e-273
-4.0702e-273
-2.16772e-273
-1.12855e-273
-5.7338e-274
-2.83769e-274
-1.36512e-274
-6.36689e-275
-2.86667e-275
-1.23068e-275
-5.22473e-276
-2.19353e-276
-9.10763e-277
-3.74016e-277
-1.51932e-277
-6.10576e-278
-2.42792e-278
-9.55461e-279
-3.72187e-279
-1.43541e-279
-5.48228e-280
-2.07411e-280
-7.77518e-281
-2.88892e-281
-1.06429e-281
-3.88918e-282
-1.41034e-282
-5.07794e-283
-1.81643e-283
-6.4602e-284
-2.28665e-284
-8.06754e-285
-2.84605e-285
-1.01335e-285
-3.76329e-286
-1.62404e-286
-1.01609e-286
-1.01638e-286
-1.33731e-286
-1.93306e-286
-2.87331e-286
-4.31726e-286
-6.53293e-286
-9.94398e-286
-1.51882e-285
-2.31255e-285
-3.45647e-285
-4.9087e-285
-6.2135e-285
-1.59967e-266
-1.29459e-266
-9.32336e-267
-6.31867e-267
-4.16135e-267
-2.71046e-267
-1.76199e-267
-1.14811e-267
-7.51091e-268
-4.93424e-268
-3.25326e-268
-2.15061e-268
-1.4238e-268
-9.42845e-269
-6.23737e-269
-4.11725e-269
-2.70863e-269
-1.77396e-269
-1.15539e-269
-7.47577e-270
-4.80067e-270
-3.05668e-270
-1.92794e-270
-1.20346e-270
-7.42774e-271
-4.52861e-271
-2.72481e-271
-1.61636e-271
-9.44313e-272
-5.42741e-272
-3.06519e-272
-1.69889e-272
-9.2284e-273
-4.90565e-273
-2.54786e-273
-1.29059e-273
-6.36324e-274
-3.04699e-274
-1.41307e-274
-6.31821e-275
-2.68822e-275
-1.13111e-275
-4.70677e-276
-1.9371e-276
-7.88569e-277
-3.17573e-277
-1.26543e-277
-4.99015e-278
-1.9479e-278
-7.52852e-279
-2.88182e-279
-1.09289e-279
-4.10762e-280
-1.53066e-280
-5.65759e-281
-2.0752e-281
-7.55799e-282
-2.73493e-282
-9.84001e-283
-3.52316e-283
-1.25663e-283
-4.47091e-284
-1.58985e-284
-5.67296e-285
-2.0544e-285
-7.85062e-286
-3.57607e-286
-2.42465e-286
-2.58852e-286
-3.5337e-286
-5.23997e-286
-7.96893e-286
-1.22392e-285
-1.89014e-285
-2.92696e-285
-4.52347e-285
-6.9118e-285
-1.02569e-284
-1.43123e-284
-1.7758e-284
-4.28385e-266
-3.52313e-266
-2.57988e-266
-1.76613e-266
-1.16501e-266
-7.54268e-267
-4.8452e-267
-3.10684e-267
-1.99487e-267
-1.28439e-267
-8.29492e-268
-5.37193e-268
-3.48626e-268
-2.26528e-268
-1.47225e-268
-9.56052e-269
-6.19659e-269
-4.00428e-269
-2.57709e-269
-1.65007e-269
-1.04999e-269
-6.63319e-270
-4.15589e-270
-2.57964e-270
-1.58472e-270
-9.62458e-271
-5.77269e-271
-3.41552e-271
-1.9912e-271
-1.14241e-271
-6.44209e-272
-3.56561e-272
-1.93423e-272
-1.02675e-272
-5.32427e-273
-2.69203e-273
-1.32441e-273
-6.32506e-274
-2.9239e-274
-1.30224e-274
-5.51317e-275
-2.30777e-275
-9.55221e-276
-3.91011e-276
-1.58314e-276
-6.34132e-277
-2.51344e-277
-9.86055e-278
-3.83007e-278
-1.47342e-278
-5.61595e-279
-2.12165e-279
-7.94831e-280
-2.95423e-280
-1.09001e-280
-3.99487e-281
-1.45539e-281
-5.27486e-282
-1.90374e-282
-6.84932e-283
-2.45977e-283
-8.83209e-284
-3.17822e-284
-1.15151e-284
-4.25524e-285
-1.67492e-285
-8.00058e-286
-5.76666e-286
-6.4524e-286
-9.07e-286
-1.37566e-285
-2.13517e-285
-3.34076e-285
-5.24148e-285
-8.21125e-285
-1.27614e-284
-1.94588e-284
-2.85734e-284
-3.91959e-284
-4.78405e-284
-1.09496e-265
-9.12435e-266
-6.7827e-266
-4.69487e-266
-3.11144e-266
-2.01063e-266
-1.28175e-266
-8.11952e-267
-5.13332e-267
-3.24684e-267
-2.05704e-267
-1.30592e-267
-8.30674e-268
-5.2917e-268
-3.37384e-268
-2.15113e-268
-1.37037e-268
-8.71412e-269
-5.52574e-269
-3.49056e-269
-2.19423e-269
-1.37117e-269
-8.50851e-270
-5.23708e-270
-3.19384e-270
-1.92765e-270
-1.15007e-270
-6.7744e-271
-3.93483e-271
-2.25069e-271
-1.26602e-271
-6.99309e-272
-3.78724e-272
-2.00761e-272
-1.03981e-272
-5.25172e-273
-2.58099e-273
-1.23129e-273
-5.68518e-274
-2.5287e-274
-1.06899e-274
-4.46668e-275
-1.84507e-275
-7.53607e-276
-3.04429e-276
-1.21662e-276
-4.81154e-277
-1.88373e-277
-7.30335e-278
-2.80529e-278
-1.06803e-278
-4.03236e-279
-1.5106e-279
-5.61853e-280
-2.07626e-280
-7.62892e-281
-2.78963e-281
-1.01616e-281
-3.69152e-282
-1.33919e-282
-4.85893e-283
-1.76657e-283
-6.4533e-284
-2.38076e-284
-8.99476e-285
-3.6437e-285
-1.80982e-285
-1.36268e-285
-1.57586e-285
-2.26732e-285
-3.50694e-285
-5.53985e-285
-8.80092e-285
-1.3973e-284
-2.20503e-284
-3.43216e-284
-5.20687e-284
-7.55885e-284
-1.02108e-283
-1.2297e-283
-2.69477e-265
-2.26983e-265
-1.7096e-265
-1.19619e-265
-7.97595e-266
-5.1574e-266
-3.27284e-266
-2.0546e-266
-1.28262e-266
-7.98856e-267
-4.97378e-267
-3.09898e-267
-1.9331e-267
-1.20726e-267
-7.54633e-268
-4.71899e-268
-2.95027e-268
-1.84266e-268
-1.14877e-268
-7.14229e-269
-4.4242e-269
-2.72763e-269
-1.67198e-269
-1.01787e-269
-6.14708e-270
-3.67835e-270
-2.17824e-270
-1.27489e-270
-7.36501e-271
-4.19377e-271
-2.35034e-271
-1.29443e-271
-6.99428e-272
-3.70139e-272
-1.91484e-272
-9.66432e-273
-4.74813e-273
-2.26528e-273
-1.04637e-273
-4.65782e-274
-1.97196e-274
-8.24879e-275
-3.41018e-275
-1.39377e-275
-5.63342e-276
-2.25255e-276
-8.91391e-277
-3.4925e-277
-1.35544e-277
-5.21339e-278
-1.98835e-278
-7.52428e-279
-2.82699e-279
-1.05533e-279
-3.91757e-280
-1.44744e-280
-5.32826e-281
-1.95644e-281
-7.17485e-282
-2.6319e-282
-9.67365e-283
-3.5702e-283
-1.32693e-283
-4.99353e-284
-1.93037e-284
-8.03263e-285
-4.11468e-285
-3.19056e-285
-3.7737e-285
-5.53077e-285
-8.69953e-285
-1.39498e-284
-2.24361e-284
-3.59336e-284
-5.69458e-284
-8.85495e-284
-1.33476e-283
-1.91628e-283
-2.55413e-283
-3.0425e-283
-6.42831e-265
-5.46262e-265
-4.16102e-265
-2.94059e-265
-1.97351e-265
-1.27879e-265
-8.09522e-266
-5.04826e-266
-3.11923e-266
-1.91715e-266
-1.17516e-266
-7.19586e-267
-4.40589e-267
-2.6987e-267
-1.65383e-267
-1.01386e-267
-6.21525e-268
-3.80812e-268
-2.33056e-268
-1.4236e-268
-8.67223e-269
-5.26376e-269
-3.18024e-269
-1.91057e-269
-1.14005e-269
-6.74885e-270
-3.95859e-270
-2.29767e-270
-1.31787e-270
-7.45886e-271
-4.15931e-271
-2.28152e-271
-1.22898e-271
-6.48933e-272
-3.35239e-272
-1.69089e-272
-8.30834e-273
-3.96715e-273
-1.83541e-273
-8.19017e-274
-3.48076e-274
-1.46109e-274
-6.05985e-275
-2.4843e-275
-1.00712e-275
-4.03909e-276
-1.60331e-276
-6.30234e-277
-2.45457e-277
-9.4775e-278
-3.63026e-278
-1.38042e-278
-5.21492e-279
-1.9589e-279
-7.32333e-280
-2.72761e-280
-1.01329e-280
-3.75938e-281
-1.39494e-281
-5.18517e-282
-1.93444e-282
-7.25959e-283
-2.74897e-283
-1.05617e-283
-4.1774e-284
-1.78165e-284
-9.34805e-285
-7.3867e-285
-8.86792e-285
-1.3189e-284
-2.10443e-284
-3.41737e-284
-5.55098e-284
-8.94697e-284
-1.42092e-283
-2.2042e-283
-3.30003e-283
-4.68956e-283
-6.17912e-283
-7.29479e-283
-1.4942e-264
-1.279e-264
-9.83647e-265
-7.0137e-265
-4.73719e-265
-3.07828e-265
-1.94658e-265
-1.20799e-265
-7.40181e-266
-4.4978e-266
-2.71893e-266
-1.63856e-266
-9.85854e-267
-5.92694e-267
-3.56229e-267
-2.14086e-267
-1.28642e-267
-7.72688e-268
-4.63745e-268
-2.77956e-268
-1.66269e-268
-9.91878e-269
-5.89583e-269
-3.48866e-269
-2.05281e-269
-1.19984e-269
-6.95763e-270
-3.99756e-270
-2.27261e-270
-1.27649e-270
-7.07284e-271
-3.85961e-271
-2.07068e-271
-1.09018e-271
-5.62153e-272
-2.83316e-272
-1.39245e-272
-6.65755e-273
-3.08757e-273
-1.38283e-273
-5.91003e-274
-2.49409e-274
-1.03976e-274
-4.28413e-275
-1.74546e-275
-7.03563e-276
-2.80723e-276
-1.10941e-276
-4.34523e-277
-1.68786e-277
-6.50699e-278
-2.49162e-278
-9.48455e-279
-3.59244e-279
-1.35534e-279
-5.09892e-280
-1.91526e-280
-7.19275e-281
-2.70492e-281
-1.02038e-281
-3.86882e-282
-1.47783e-282
-5.70511e-283
-2.23823e-283
-9.05211e-284
-3.94858e-284
-2.11157e-284
-1.68849e-284
-2.0469e-284
-3.08031e-284
-4.97513e-284
-8.16548e-284
-1.33695e-283
-2.16475e-283
-3.44069e-283
-5.32091e-283
-7.91369e-283
-1.11436e-282
-1.45404e-282
-1.70392e-282
-3.3986e-264
-2.92668e-264
-2.26921e-264
-1.63074e-264
-1.108e-264
-7.22228e-265
-4.56617e-265
-2.82345e-265
-1.71824e-265
-1.03395e-265
-6.1735e-266
-3.66678e-266
-2.17044e-266
-1.28193e-266
-7.56146e-267
-4.45637e-267
-2.62481e-267
-1.54513e-267
-9.08903e-268
-5.34098e-268
-3.13385e-268
-1.83504e-268
-1.07157e-268
-6.23517e-269
-3.6119e-269
-2.0808e-269
-1.19081e-269
-6.76121e-270
-3.8036e-270
-2.11701e-270
-1.16395e-270
-6.31114e-271
-3.36886e-271
-1.76705e-271
-9.08975e-272
-4.57595e-272
-2.24939e-272
-1.07709e-272
-5.00979e-273
-2.25383e-273
-9.69922e-274
-4.12082e-274
-1.72935e-274
-7.1725e-275
-2.94163e-275
-1.19367e-275
-4.79552e-276
-1.90862e-276
-7.53082e-277
-2.94798e-277
-1.14582e-277
-4.4258e-278
-1.70043e-278
-6.5051e-279
-2.48062e-279
-9.44072e-280
-3.59057e-280
-1.3667e-280
-5.21487e-281
-1.99828e-281
-7.7055e-282
-2.9972e-282
-1.17969e-282
-4.72427e-283
-1.95187e-283
-8.6921e-284
-4.72268e-284
-3.80671e-284
-4.64561e-284
-7.059e-284
-1.15209e-283
-1.90795e-283
-3.14405e-283
-5.10764e-283
-8.11779e-283
-1.25122e-282
-1.84951e-282
-2.58361e-282
-3.34336e-282
-3.89403e-282
-7.59086e-264
-6.56946e-264
-5.12874e-264
-3.71082e-264
-2.53491e-264
-1.65745e-264
-1.04822e-264
-6.4643e-265
-3.91183e-265
-2.3342e-265
-1.37852e-265
-8.08055e-266
-4.71137e-266
-2.73665e-266
-1.58546e-266
-9.16852e-267
-5.29513e-267
-3.05501e-267
-1.76096e-267
-1.01404e-267
-5.8321e-268
-3.34893e-268
-1.91901e-268
-1.09664e-268
-6.245e-269
-3.54075e-269
-1.99667e-269
-1.11857e-269
-6.21746e-270
-3.42409e-270
-1.86552e-270
-1.00384e-270
-5.32579e-271
-2.78063e-271
-1.4259e-271
-7.16659e-272
-3.52255e-272
-1.68921e-272
-7.88142e-273
-3.56343e-273
-1.54536e-273
-6.61624e-274
-2.79802e-274
-1.16949e-274
-4.83405e-275
-1.97728e-275
-8.00872e-276
-3.21441e-276
-1.27941e-276
-5.05405e-277
-1.98319e-277
-7.7373e-278
-3.00431e-278
-1.16225e-278
-4.485e-279
-1.72857e-279
-6.66307e-280
-2.57269e-280
-9.96678e-281
-3.8813e-281
-1.52249e-281
-6.03012e-282
-2.41907e-282
-9.88194e-283
-4.16643e-283
-1.89139e-283
-1.04243e-283
-8.45818e-284
-1.03784e-283
-1.59025e-283
-2.61906e-283
-4.37069e-283
-7.24017e-283
-1.17903e-282
-1.8729e-282
-2.87728e-282
-4.22956e-282
-5.8675e-282
-7.54012e-282
-8.73763e-282
-1.66972e-263
-1.45104e-263
-1.13938e-263
-8.29206e-264
-5.69151e-264
-3.73229e-264
-2.36179e-264
-1.45358e-264
-8.75524e-265
-5.18646e-265
-3.03345e-265
-1.75707e-265
-1.01035e-265
-5.77799e-266
-3.29096e-266
-1.86882e-266
-1.05889e-266
-5.98958e-267
-3.38342e-267
-1.90895e-267
-1.07576e-267
-6.05402e-268
-3.40141e-268
-1.90707e-268
-1.06639e-268
-5.94277e-269
-3.29767e-269
-1.82023e-269
-9.98248e-270
-5.43215e-270
-2.92883e-270
-1.56213e-270
-8.22793e-271
-4.2719e-271
-2.18201e-271
-1.09422e-271
-5.37542e-272
-2.58089e-272
-1.20789e-272
-5.48945e-273
-2.39999e-273
-1.03602e-273
-4.41818e-274
-1.86247e-274
-7.76564e-275
-3.20477e-275
-1.30995e-275
-5.30735e-276
-2.1331e-276
-8.51192e-277
-3.37536e-277
-1.33141e-277
-5.2295e-278
-2.04763e-278
-8.00232e-279
-3.12553e-279
-1.22179e-279
-4.78753e-280
-1.88367e-280
-7.45564e-281
-2.97475e-281
-1.19932e-281
-4.90078e-282
-2.04036e-282
-8.76894e-283
-4.05345e-283
-2.2652e-283
-1.85131e-283
-2.28469e-283
-3.52811e-283
-5.85761e-283
-9.83976e-283
-1.63704e-282
-2.67059e-282
-4.23897e-282
-6.49216e-282
-9.49663e-282
-1.30961e-281
-1.67308e-281
-1.93067e-281
-3.62595e-263
-3.16188e-263
-2.49484e-263
-1.82473e-263
-1.25769e-263
-8.26954e-264
-5.23667e-264
-3.21799e-264
-1.93072e-264
-1.13656e-264
-6.59078e-265
-3.77691e-265
-2.14443e-265
-1.20879e-265
-6.77586e-266
-3.78189e-266
-2.10387e-266
-1.16741e-266
-6.46485e-267
-3.57434e-267
-1.97343e-267
-1.0881e-267
-5.99102e-268
-3.29319e-268
-1.80657e-268
-9.88508e-269
-5.39132e-269
-2.92836e-269
-1.58244e-269
-8.49732e-270
-4.52799e-270
-2.39078e-270
-1.24874e-270
-6.44048e-271
-3.27378e-271
-1.63676e-271
-8.03146e-272
-3.85915e-272
-1.81119e-272
-8.27279e-273
-3.64644e-273
-1.58744e-273
-6.82901e-274
-2.90469e-274
-1.22235e-274
-5.09262e-275
-2.10207e-275
-8.60304e-276
-3.49394e-276
-1.40936e-276
-5.65169e-277
-2.25542e-277
-8.96672e-278
-3.55553e-278
-1.40792e-278
-5.57497e-279
-2.21068e-279
-8.79241e-280
-3.51343e-280
-1.4132e-280
-5.73339e-281
-2.35163e-281
-9.78086e-282
-4.14612e-282
-1.8144e-282
-8.53345e-283
-4.83769e-283
-3.99101e-283
-4.96142e-283
-7.72174e-283
-1.29147e-282
-2.18195e-282
-3.64328e-282
-5.95143e-282
-9.4384e-282
-1.44148e-281
-2.09956e-281
-2.88069e-281
-3.66211e-281
-4.21122e-281
-7.78961e-263
-6.81201e-263
-5.39681e-263
-3.96394e-263
-2.74199e-263
-1.80721e-263
-1.14525e-263
-7.02929e-264
-4.20355e-264
-2.46111e-264
-1.41641e-264
-8.03938e-265
-4.5123e-265
-2.51002e-265
-1.38626e-265
-7.61264e-266
-4.16169e-266
-2.26704e-266
-1.23149e-266
-6.67478e-267
-3.61126e-267
-1.95081e-267
-1.05235e-267
-5.66883e-268
-3.04887e-268
-1.63666e-268
-8.76475e-269
-4.67948e-269
-2.48865e-269
-1.31703e-269
-6.92734e-270
-3.61635e-270
-1.87082e-270
-9.57431e-271
-4.83829e-271
-2.4095e-271
-1.18006e-271
-5.67104e-272
-2.66769e-272
-1.2242e-272
-5.43853e-273
-2.38743e-273
-1.03608e-273
-4.44734e-274
-1.88936e-274
-7.94917e-275
-3.31465e-275
-1.37089e-275
-5.62832e-276
-2.29594e-276
-9.31457e-277
-3.76214e-277
-1.51445e-277
-6.0832e-278
-2.44128e-278
-9.80163e-279
-3.94284e-279
-1.59159e-279
-6.458e-280
-2.63883e-280
-1.08803e-280
-4.53715e-281
-1.91911e-281
-8.27484e-282
-3.68352e-282
-1.76176e-282
-1.01441e-282
-8.47523e-283
-1.06403e-282
-1.66989e-282
-2.81225e-282
-4.77557e-282
-7.9985e-282
-1.30794e-281
-2.07248e-281
-3.15732e-281
-4.58179e-281
-6.25943e-281
-7.92459e-281
-9.08652e-281
-1.65838e-262
-1.45368e-262
-1.15559e-262
-8.5181e-263
-5.91042e-263
-3.90362e-263
-2.47552e-263
-1.51797e-263
-9.05232e-264
-5.27508e-264
-3.01579e-264
-1.69714e-264
-9.42725e-265
-5.18095e-265
-2.8225e-265
-1.52672e-265
-8.21047e-266
-4.39489e-266
-2.34369e-266
-1.2461e-266
-6.60947e-267
-3.499e-267
-1.84939e-267
-9.76119e-268
-5.14507e-268
-2.70801e-268
-1.42286e-268
-7.46005e-269
-3.9004e-269
-2.03192e-269
-1.05363e-269
-5.4314e-270
-2.77948e-270
-1.40976e-270
-7.07443e-271
-3.5057e-271
-1.71204e-271
-8.2221e-272
-3.87389e-272
-1.78494e-272
-7.98767e-273
-3.53444e-273
-1.54697e-273
-6.70045e-274
-2.8736e-274
-1.22102e-274
-5.144e-275
-2.15027e-275
-8.92613e-276
-3.683e-276
-1.51193e-276
-6.18153e-277
-2.51989e-277
-1.02542e-277
-4.17065e-278
-1.69777e-278
-6.92714e-279
-2.83732e-279
-1.16861e-279
-4.84861e-280
-2.03053e-280
-8.6022e-281
-3.69705e-281
-1.6199e-281
-7.32852e-282
-3.56361e-282
-2.08777e-282
-1.7738e-282
-2.25618e-282
-3.57367e-282
-6.05855e-282
-1.03354e-281
-1.73566e-281
-2.84059e-281
-4.49738e-281
-6.83665e-281
-9.88984e-281
-1.34621e-280
-1.69847e-280
-1.94285e-280
-3.504e-262
-3.0775e-262
-2.45338e-262
-1.81386e-262
-1.26187e-262
-8.34925e-263
-5.29818e-263
-3.2463e-263
-1.93133e-263
-1.12087e-263
-6.37083e-264
-3.55809e-264
-1.95814e-264
-1.06442e-264
-5.72674e-265
-3.05475e-265
-1.61791e-265
-8.51906e-266
-4.46422e-266
-2.3303e-266
-1.2126e-266
-6.29424e-267
-3.26067e-267
-1.68647e-267
-8.71097e-268
-4.49393e-268
-2.31548e-268
-1.1913e-268
-6.11773e-269
-3.13396e-269
-1.60019e-269
-8.13539e-270
-4.11307e-270
-2.06491e-270
-1.02771e-270
-5.06163e-271
-2.46217e-271
-1.18048e-271
-5.56563e-272
-2.57269e-272
-1.15875e-272
-5.16484e-273
-2.27877e-273
-9.95585e-274
-4.30921e-274
-1.84889e-274
-7.86869e-275
-3.32426e-275
-1.39522e-275
-5.8228e-276
-2.41866e-276
-1.00097e-276
-4.13187e-277
-1.70319e-277
-7.01969e-278
-2.89663e-278
-1.19842e-278
-4.97896e-279
-2.08061e-279
-8.76053e-280
-3.72386e-280
-1.60147e-280
-6.98741e-281
-3.1083e-281
-1.42805e-281
-7.06032e-282
-4.21845e-282
-3.66194e-282
-4.7359e-282
-7.57904e-282
-1.2933e-281
-2.21552e-281
-3.72924e-281
-6.10754e-281
-9.66283e-281
-1.46614e-280
-2.11524e-280
-2.87052e-280
-3.61126e-280
-4.12265e-280
-7.35703e-262
-6.47201e-262
-5.17163e-262
-3.83315e-262
-2.67256e-262
-1.77103e-262
-1.12449e-262
-6.88557e-263
-4.08819e-263
-2.3643e-263
-1.33699e-263
-7.41727e-264
-4.04831e-264
-2.17907e-264
-1.15917e-264
-6.10496e-265
-3.18828e-265
-1.65332e-265
-8.5231e-266
-4.37239e-266
-2.23416e-266
-1.13794e-266
-5.78121e-267
-2.93129e-267
-1.48399e-267
-7.50376e-268
-3.79036e-268
-1.9127e-268
-9.6408e-269
-4.85208e-269
-2.43693e-269
-1.22042e-269
-6.08798e-270
-3.02124e-270
-1.48936e-270
-7.28094e-271
-3.52335e-271
-1.68439e-271
-7.93786e-272
-3.67714e-272
-1.66512e-272
-7.46954e-273
-3.31971e-273
-1.46209e-273
-6.38382e-274
-2.76463e-274
-1.18824e-274
-5.07206e-275
-2.15186e-275
-9.08163e-276
-3.81626e-276
-1.59837e-276
-6.67954e-277
-2.78839e-277
-1.16422e-277
-4.86813e-278
-2.0415e-278
-8.59905e-279
-3.64385e-279
-1.55606e-279
-6.70898e-280
-2.92664e-280
-1.29525e-280
-5.84481e-281
-2.72526e-281
-1.3704e-281
-8.37429e-282
-7.46617e-282
-9.85387e-282
-1.59501e-281
-2.73939e-281
-4.71085e-281
-7.94581e-281
-1.3021e-280
-2.05879e-280
-3.11882e-280
-4.48947e-280
-6.07702e-280
-7.62697e-280
-8.69275e-280
-1.53659e-261
-1.35355e-261
-1.0837e-261
-8.04908e-262
-5.6224e-262
-3.73068e-262
-2.36989e-262
-1.45039e-262
-8.5966e-263
-4.95655e-263
-2.7905e-263
-1.53903e-263
-8.33866e-264
-4.44926e-264
-2.34286e-264
-1.21976e-264
-6.28902e-265
-3.2158e-265
-1.63283e-265
-8.24191e-266
-4.13981e-266
-2.07102e-266
-1.03273e-266
-5.13678e-267
-2.55011e-267
-1.26418e-267
-6.26051e-268
-3.09793e-268
-1.53192e-268
-7.56941e-269
-3.73609e-269
-1.84105e-269
-9.05039e-270
-4.43373e-270
-2.16179e-270
-1.04749e-270
-5.03551e-271
-2.39708e-271
-1.12764e-271
-5.22815e-272
-2.37711e-272
-1.07198e-272
-4.79437e-273
-2.12687e-273
-9.36115e-274
-4.0895e-274
-1.77416e-274
-7.64827e-275
-3.27867e-275
-1.39878e-275
-5.94432e-276
-2.51873e-276
-1.06523e-276
-4.50173e-277
-1.90332e-277
-8.0613e-278
-3.42494e-278
-1.46182e-278
-6.2778e-279
-2.71718e-279
-1.18744e-279
-5.25027e-280
-2.35509e-280
-1.0772e-280
-5.09504e-281
-2.6076e-281
-1.63533e-281
-1.50566e-281
-2.03505e-281
-3.33505e-281
-5.76454e-281
-9.94849e-281
-1.6811e-280
-2.75632e-280
-4.35581e-280
-6.5897e-280
-9.46782e-280
-1.27886e-279
-1.60187e-279
-1.82324e-279
-3.19532e-261
-2.81779e-261
-2.25968e-261
-1.68127e-261
-1.17621e-261
-7.81315e-262
-4.96533e-262
-3.03744e-262
-1.79768e-262
-1.03379e-262
-5.79788e-263
-3.18135e-263
-1.71264e-263
-9.06759e-264
-4.73169e-264
-2.43813e-264
-1.24262e-264
-6.27342e-265
-3.14144e-265
-1.56217e-265
-7.72273e-266
-3.79909e-266
-1.8614e-266
-9.09089e-267
-4.42891e-267
-2.15376e-267
-1.04604e-267
-5.07635e-268
-2.46232e-268
-1.19398e-268
-5.78753e-269
-2.80364e-269
-1.35665e-269
-6.55223e-270
-3.15533e-270
-1.51311e-270
-7.21464e-271
-3.41453e-271
-1.60094e-271
-7.41778e-272
-3.38121e-272
-1.53073e-272
-6.88122e-273
-3.07154e-273
-1.36154e-273
-5.99527e-274
-2.62347e-274
-1.14147e-274
-4.94151e-275
-2.13002e-275
-9.14959e-276
-3.92026e-276
-1.67712e-276
-7.17166e-277
-3.06896e-277
-1.3159e-277
-5.66103e-278
-2.44695e-278
-1.06432e-278
-4.66595e-279
-2.06533e-279
-9.24894e-280
-4.20172e-280
-1.94667e-280
-9.33757e-281
-4.86919e-281
-3.14667e-281
-3.00868e-281
-4.17739e-281
-6.9362e-281
-1.20645e-280
-2.08899e-280
-3.53579e-280
-5.80001e-280
-9.16179e-280
-1.38449e-279
-1.98605e-279
-2.67794e-279
-3.34884e-279
-3.80738e-279
-6.62067e-261
-5.84371e-261
-4.69251e-261
-3.49639e-261
-2.44921e-261
-1.62841e-261
-1.03523e-261
-6.33042e-262
-3.74191e-262
-2.14705e-262
-1.20017e-262
-6.55628e-263
-3.50975e-263
-1.84564e-263
-9.55428e-264
-4.87809e-264
-2.46058e-264
-1.22806e-264
-6.07277e-265
-2.97905e-265
-1.45138e-265
-7.0299e-266
-3.38843e-266
-1.62675e-266
-7.78524e-267
-3.71698e-267
-1.77166e-267
-8.43551e-268
-4.01429e-268
-1.91004e-268
-9.08892e-269
-4.32541e-269
-2.05826e-269
-9.78876e-270
-4.6493e-270
-2.20311e-270
-1.04021e-270
-4.88627e-271
-2.27949e-271
-1.05368e-271
-4.80658e-272
-2.18104e-272
-9.84072e-273
-4.41412e-273
-1.96838e-273
-8.72751e-274
-3.84871e-274
-1.68879e-274
-7.37754e-275
-3.21082e-275
-1.39323e-275
-6.03269e-276
-2.60911e-276
-1.12829e-276
-4.88404e-277
-2.11883e-277
-9.22425e-278
-4.03533e-278
-1.77656e-278
-7.88336e-279
-3.53194e-279
-1.60081e-279
-7.35999e-280
-3.45194e-280
-1.67901e-280
-8.93484e-281
-5.97826e-281
-5.96912e-281
-8.53464e-281
-1.43639e-280
-2.51367e-280
-4.36569e-280
-7.40023e-280
-1.21444e-279
-1.91767e-279
-2.8952e-279
-4.14775e-279
-5.58459e-279
-6.97429e-279
-7.922e-279
-1.36771e-260
-1.2081e-260
-9.71169e-261
-7.24478e-261
-5.08036e-261
-3.38035e-261
-2.14962e-261
-1.31406e-261
-7.75913e-262
-4.44358e-262
-2.47687e-262
-1.3479e-262
-7.18067e-263
-3.75371e-263
-1.92959e-263
-9.77246e-264
-4.88441e-264
-2.41298e-264
-1.17987e-264
-5.71741e-265
-2.74891e-265
-1.31275e-265
-6.23314e-266
-2.94539e-266
-1.38638e-266
-6.50577e-267
-3.04605e-267
-1.42404e-267
-6.65203e-268
-3.10657e-268
-1.45112e-268
-6.7819e-269
-3.17148e-269
-1.48379e-269
-6.94217e-270
-3.24583e-270
-1.51506e-270
-7.05111e-271
-3.26684e-271
-1.50364e-271
-6.85095e-272
-3.11017e-272
-1.40612e-272
-6.32862e-273
-2.83516e-273
-1.26424e-273
-5.61224e-274
-2.48106e-274
-1.09276e-274
-4.79793e-275
-2.10146e-275
-9.18904e-276
-4.015e-276
-1.75466e-276
-7.67818e-277
-3.36805e-277
-1.48283e-277
-6.56105e-278
-2.9217e-278
-1.3114e-278
-5.94279e-279
-2.72419e-279
-1.26675e-279
-6.01147e-280
-2.9654e-280
-1.61386e-280
-1.12417e-280
-1.17825e-280
-1.7377e-280
-2.96449e-280
-5.21813e-280
-9.08805e-280
-1.54253e-279
-2.53241e-279
-3.9977e-279
-6.03091e-279
-8.63077e-279
-1.16067e-278
-1.44789e-278
-1.64341e-278
-2.81852e-260
-2.49112e-260
-2.00436e-260
-1.49668e-260
-1.05046e-260
-6.99392e-261
-4.4486e-261
-2.71866e-261
-1.60385e-261
-9.17021e-262
-5.09918e-262
-2.76586e-262
-1.4673e-262
-7.63113e-263
-3.89896e-263
-1.96072e-263
-9.7214e-264
-4.75941e-264
-2.30408e-264
-1.10438e-264
-5.24728e-265
-2.47413e-265
-1.15887e-265
-5.39752e-266
-2.50216e-266
-1.15555e-266
-5.32097e-267
-2.44505e-267
-1.12208e-267
-5.14655e-268
-2.36072e-268
-1.08353e-268
-4.97801e-269
-2.28961e-269
-1.05419e-269
-4.85697e-270
-2.23776e-270
-1.03001e-270
-4.73024e-271
-2.16355e-271
-9.82471e-272
-4.45325e-272
-2.01354e-272
-9.07742e-273
-4.07889e-273
-1.82658e-273
-8.15195e-274
-3.62651e-274
-1.60866e-274
-7.11851e-275
-3.14427e-275
-1.38727e-275
-6.11879e-276
-2.70038e-276
-1.19365e-276
-5.29041e-277
-2.35384e-277
-1.05267e-277
-4.73822e-278
-2.14973e-278
-9.84676e-279
-4.56214e-279
-2.14422e-279
-1.02918e-279
-5.15111e-280
-2.87527e-280
-2.09799e-280
-2.31877e-280
-3.53006e-280
-6.10247e-280
-1.08005e-279
-1.88579e-279
-3.20454e-279
-5.26281e-279
-8.30613e-279
-1.25227e-278
-1.79052e-278
-2.40553e-278
-2.9981e-278
-3.40087e-278
-5.79665e-260
-5.12583e-260
-4.12729e-260
-3.08436e-260
-2.16635e-260
-1.44309e-260
-9.1808e-261
-5.60933e-261
-3.30665e-261
-1.88804e-261
-1.04771e-261
-5.66709e-262
-2.99568e-262
-1.55114e-262
-7.88363e-263
-3.94033e-263
-1.94e-263
-9.42321e-264
-4.52206e-264
-2.14671e-264
-1.00932e-264
-4.70532e-265
-2.17726e-265
-1.00099e-265
-4.57678e-266
-2.0831e-266
-9.44657e-267
-4.27206e-267
-1.92831e-267
-8.69466e-268
-3.91927e-268
-1.76742e-268
-7.97839e-269
-3.60674e-269
-1.63319e-269
-7.40743e-270
-3.36414e-270
-1.52892e-270
-6.94675e-271
-3.15085e-271
-1.42282e-271
-6.42502e-272
-2.8993e-272
-1.30661e-272
-5.87819e-273
-2.6391e-273
-1.1823e-273
-5.28539e-274
-2.35824e-274
-1.05052e-274
-4.67453e-275
-2.07896e-275
-9.24784e-276
-4.11792e-276
-1.83721e-276
-8.22102e-277
-3.69369e-277
-1.66834e-277
-7.58506e-278
-3.4761e-278
-1.60826e-278
-7.52613e-279
-3.5733e-279
-1.73423e-279
-8.81384e-280
-5.06468e-280
-3.89744e-280
-4.5586e-280
-7.16217e-280
-1.2538e-279
-2.23022e-279
-3.90284e-279
-6.63895e-279
-1.09066e-278
-1.72106e-278
-2.59341e-278
-3.70543e-278
-4.97416e-278
-6.19491e-278
-7.02364e-278
-1.1902e-259
-1.05289e-259
-8.48285e-260
-6.34347e-260
-4.45808e-260
-2.97096e-260
-1.89039e-260
-1.15477e-260
-6.80295e-261
-3.8799e-261
-2.14932e-261
-1.15983e-261
-6.11232e-262
-3.15303e-262
-1.59532e-262
-7.93168e-263
-3.88156e-263
-1.87255e-263
-8.9178e-264
-4.19795e-264
-1.95566e-264
-9.0264e-265
-4.13198e-265
-1.87785e-265
-8.48102e-266
-3.81001e-266
-1.7041e-266
-7.59542e-267
-3.37666e-267
-1.49861e-267
-6.64561e-268
-2.94701e-268