/*--------------------------------*- C++ -*----------------------------------*\
  =========                 |
  \\      /  F ield         | OpenFOAM: The Open Source CFD Toolbox
   \\    /   O peration     | Website:  https://openfoam.org
    \\  /    A nd           | Version:  11
     \\/     M anipulation  |
\*---------------------------------------------------------------------------*/
FoamFile
{
    format      ascii;
    class       volScalarField;
    location    "100";
    object      C;
}
// * * * * * * * * * * * * * * * * * * * * * * * * * * * * * * * * * * * * * //

dimensions      [0 0 0 1 0 0 0];

internalField   nonuniform List<scalar> 
427520
(
2.90411e-311
5.43173e-311
5.67904e-311
7.19974e-311
4.63597e-311
2.9357e-311
2.29629e-311
-5.25507e-311
1.65779e-312
1.1154e-311
-1.8949e-313
-9.93185e-312
2.66473e-312
5.40826e-311
1.10753e-312
8.11576e-312
-6.48355e-312
-1.83243e-312
-4.0442e-311
6.08311e-312
9.03052e-312
-7.71639e-312
-1.37195e-311
1.77169e-313
7.25198e-311
2.01276e-311
-4.6713e-311
-2.35292e-311
-8.50972e-311
-3.80072e-311
4.44371e-311
5.00968e-311
-5.63087e-312
-1.65552e-312
1.70578e-311
6.30547e-312
-7.81159e-311
8.72746e-312
6.86642e-312
5.23396e-311
-7.36074e-311
-9.02631e-312
-1.73262e-312
-1.59649e-312
-3.37524e-312
-6.91739e-311
-7.93405e-312
6.05055e-312
3.07267e-312
-1.68751e-311
-2.0447e-311
-1.17255e-311
-1.08208e-311
-4.93881e-311
1.44444e-311
7.95099e-311
1.11162e-311
5.82973e-311
2.20681e-311
4.41527e-312
1.10082e-311
6.19323e-312
-1.09545e-311
6.73789e-312
1.81843e-312
2.13309e-311
2.90367e-311
6.98743e-311
6.66615e-311
-3.31993e-311
5.49392e-313
1.60837e-312
-3.62829e-313
-1.69179e-312
-5.28585e-312
1.11085e-311
3.79118e-311
-3.36385e-311
2.10189e-311
8.53808e-311
1.05674e-310
-1.5544e-312
-1.70021e-312
1.67865e-310
8.09665e-311
-2.41574e-311
-2.74793e-311
-4.85438e-311
-2.99462e-311
3.74189e-311
-1.71043e-311
-4.29605e-311
3.02069e-311
-1.55426e-311
-3.68703e-311
-9.08e-313
1.96788e-311
-2.73086e-311
-4.1998e-311
-1.11018e-311
-1.67942e-311
1.31848e-311
1.53066e-311
1.81835e-311
5.30462e-311
1.26434e-310
-1.47117e-311
-1.05197e-310
-1.93202e-310
-1.40215e-310
-8.48794e-311
-9.70867e-312
-1.20056e-310
-6.6903e-311
5.15359e-311
-8.62387e-311
-5.63628e-311
7.77439e-313
-4.04209e-311
9.59074e-312
4.99174e-312
2.44285e-311
4.34243e-311
8.52062e-311
1.16663e-311
4.76178e-312
2.51493e-311
2.92945e-311
1.08928e-311
-7.96006e-312
4.16144e-311
-5.32748e-311
-3.30409e-311
7.26338e-312
1.55439e-311
3.86005e-311
-2.76455e-311
9.10691e-313
1.0223e-311
-8.6805e-311
-1.16025e-311
5.15447e-311
-3.7785e-311
3.00046e-311
5.2859e-312
2.14808e-311
8.4955e-311
1.61738e-312
1.06631e-313
1.24517e-311
-7.97573e-311
-2.31286e-311
-1.98789e-311
-7.097e-311
-3.99114e-311
4.18746e-311
5.80667e-311
-9.28236e-311
-2.60721e-312
3.78541e-311
2.13881e-311
-1.05933e-310
-1.07776e-310
6.89862e-311
1.22491e-310
1.95552e-311
-2.63563e-312
-4.3099e-311
-7.15755e-311
-1.65893e-311
-1.3093e-310
-1.14767e-310
-1.4068e-310
-8.58538e-311
-6.2162e-311
-4.07354e-311
-1.41772e-311
2.4607e-311
1.12732e-310
8.42265e-311
-1.13702e-311
-5.33619e-311
-2.47493e-312
5.24053e-311
3.7376e-311
6.22215e-311
9.7973e-312
-1.30093e-310
-1.74642e-310
-2.20048e-310
-8.17083e-311
-3.63552e-312
-1.10649e-310
-1.22399e-310
3.56795e-311
-6.04608e-312
-2.34408e-311
-4.08151e-311
-7.76773e-311
-4.35428e-311
5.97743e-311
1.08235e-310
1.54282e-310
1.06552e-310
-1.27859e-311
-6.33501e-311
6.75337e-311
-3.23712e-311
-8.33781e-312
-8.07163e-311
-3.81674e-311
-2.86713e-311
1.76571e-311
5.3554e-311
-7.63283e-312
-6.69154e-311
-5.4691e-311
2.28269e-312
3.74897e-311
-6.10654e-311
-9.31182e-311
-1.20117e-311
-1.02566e-310
-7.71641e-311
-1.97338e-311
1.1442e-311
5.23918e-311
-4.24111e-311
2.63936e-311
3.25438e-312
-3.21336e-311
-3.90502e-311
-3.94741e-311
-6.90778e-311
-2.7514e-311
-8.23264e-311
-3.13527e-311
-1.73367e-310
-5.24588e-311
6.82962e-312
-1.43785e-311
-1.16367e-310
-3.81998e-311
1.47274e-310
2.49807e-310
1.11202e-310
9.87067e-311
-1.19882e-311
2.12713e-311
5.53653e-311
-6.04457e-311
-1.7126e-310
-2.24587e-310
-1.28007e-310
-3.81094e-311
-4.17757e-311
9.25549e-312
-4.06796e-311
1.32331e-310
1.26908e-310
4.67493e-311
-3.42326e-311
-6.22621e-311
5.71276e-311
6.60373e-311
8.67975e-311
5.11167e-311
-6.62444e-311
-1.73638e-310
-1.9649e-310
-8.02676e-311
-5.83524e-311
-1.99232e-310
-7.71589e-311
5.04719e-311
5.27523e-311
3.21821e-311
2.20402e-311
-8.13295e-311
-1.23111e-310
1.4038e-310
6.77805e-311
1.85468e-310
8.83687e-311
5.4974e-311
-1.56585e-311
1.07453e-310
-2.06647e-311
-3.66714e-311
-1.50705e-310
-4.31534e-311
-7.2073e-311
-4.62561e-311
-1.90002e-311
-1.13265e-310
-1.89144e-310
-8.78249e-311
-6.91683e-311
-1.17729e-311
-1.02683e-310
-6.86819e-311
3.05721e-311
-2.24594e-311
-9.65819e-311
-1.22309e-311
-3.40687e-311
-6.43655e-312
-1.76223e-310
-1.31111e-311
-1.94588e-311
-6.33333e-311
-4.33251e-311
-8.39033e-311
-1.08927e-311
-1.03761e-310
-1.89478e-310
-1.4319e-310
-2.66221e-310
-2.18109e-310
-3.30747e-311
-1.77074e-310
-1.09423e-310
1.92415e-310
1.87829e-310
2.65608e-310
2.87609e-310
2.59095e-310
8.30215e-311
7.08856e-312
5.21351e-311
-9.40946e-311
-1.43219e-310
-1.89963e-310
-2.41221e-310
-2.07029e-310
-7.92836e-311
1.77567e-311
7.70348e-311
1.26195e-310
1.32849e-310
1.74507e-310
1.87081e-310
9.41775e-311
2.11023e-311
6.81995e-311
1.83057e-310
1.57532e-310
-4.66092e-311
-2.04369e-310
-3.57931e-310
-1.33351e-310
-1.42667e-310
-2.8824e-312
2.57123e-311
2.09717e-311
2.90804e-311
1.04726e-310
-4.69673e-311
-1.43142e-310
-1.50201e-310
5.1654e-311
8.75973e-311
5.33825e-311
-5.74732e-311
3.76509e-311
-1.01265e-311
1.38255e-310
5.22725e-311
-2.49993e-310
-2.6584e-310
-1.8054e-310
-9.81373e-311
-6.85117e-311
-8.67656e-311
-1.51604e-310
-9.14321e-311
-1.00389e-310
-2.24849e-310
-1.79252e-310
-7.20871e-311
-2.67836e-311
-3.74335e-311
-5.76829e-311
-4.70558e-311
8.89413e-311
-1.22698e-311
-7.15607e-311
-6.52825e-311
-5.36988e-311
-6.87776e-311
-2.57072e-311
-1.19676e-310
-3.3907e-311
-2.97759e-311
-8.5883e-311
-9.35403e-311
-3.95697e-311
-2.25629e-310
-2.62654e-310
-3.07865e-310
-1.25429e-310
-1.80684e-310
7.00224e-311
2.35252e-310
3.62247e-310
3.2879e-310
2.50097e-310
1.52746e-310
1.38612e-311
1.27299e-310
-9.44948e-311
-1.4829e-310
-2.01493e-310
-2.32524e-310
-2.94757e-310
-1.83625e-310
-5.86365e-311
7.8972e-311
1.07017e-310
2.24006e-310
2.47248e-310
1.69539e-310
1.04572e-310
6.27609e-311
7.76726e-311
1.54845e-310
1.69947e-310
8.61025e-312
-1.62502e-310
-3.32053e-310
-3.13606e-310
-2.10645e-310
-1.64116e-311
-5.04033e-311
-3.63406e-311
1.50186e-311
3.00107e-311
-5.70268e-311
-1.58374e-310
-2.82325e-311
6.69232e-311
1.59755e-310
1.02101e-310
-9.82359e-311
8.58243e-311
3.0005e-311
1.26095e-310
1.57544e-311
-2.82289e-310
-2.35663e-310
-2.24065e-310
-1.18091e-310
-2.38491e-311
-7.27287e-311
-1.0067e-310
-1.40571e-310
-1.78046e-310
-1.44546e-310
-1.10293e-310
5.44976e-311
2.89824e-311
1.95478e-311
-1.20229e-310
-4.8166e-313
8.30858e-311
8.04928e-311
-9.02762e-311
-1.26272e-310
-1.64104e-310
-5.72477e-311
-1.83329e-311
-3.75345e-311
-1.24294e-310
-1.26746e-310
-2.55425e-310
-1.28968e-310
-2.34685e-310
-3.53228e-310
-3.49543e-310
-2.25721e-310
3.04424e-310
3.78484e-311
3.05413e-311
9.63959e-311
2.98125e-310
3.2984e-310
2.71791e-310
2.76689e-310
1.3932e-310
1.20127e-310
-2.75636e-311
-1.11655e-310
-1.68435e-310
-2.6922e-310
-1.57207e-310
-2.39181e-310
-9.95408e-311
-5.05487e-311
3.65598e-311
8.42668e-311
2.27286e-310
2.01754e-310
1.00103e-310
8.81567e-311
-1.76523e-311
5.80369e-311
1.00648e-310
3.21505e-311
-1.46536e-310
-2.79302e-310
-3.32299e-310
-2.91904e-310
-1.44147e-310
-2.42684e-311
-3.0922e-312
-4.74325e-311
-5.45189e-311
-6.25867e-311
-9.18619e-311
1.88251e-312
1.19464e-310
1.68458e-310
1.84089e-310
-9.7699e-311
3.89574e-311
3.40851e-311
3.15658e-311
-1.443e-310
-2.68349e-310
-2.88728e-310
-2.80921e-310
-1.32416e-310
-6.56194e-311
-6.6295e-311
-8.72467e-311
4.35652e-311
-1.0652e-310
-2.58387e-311
-8.08023e-311
5.75848e-311
-1.08319e-310
-1.12732e-310
-1.36778e-310
-1.32846e-310
-1.25205e-310
1.19654e-311
-8.16118e-311
-5.67099e-311
-7.28878e-311
-4.57162e-311
-4.92982e-311
-7.63971e-311
-2.68573e-311
5.33186e-312
-1.64449e-310
-3.19255e-310
-4.60181e-310
-4.32957e-310
-4.47225e-310
-5.33015e-310
-5.67404e-311
-3.37172e-310
-6.7233e-311
6.77475e-311
3.47368e-310
5.14884e-310
2.85817e-310
2.68247e-310
2.01058e-310
1.27336e-310
6.4199e-312
-1.09225e-310
-1.4482e-310
-1.55902e-310
-2.29826e-310
-3.0976e-310
-1.93874e-310
-6.3972e-311
2.28306e-311
1.026e-310
1.97263e-310
2.90012e-310
1.30347e-310
3.25856e-311
-3.78421e-311
7.3739e-311
3.50311e-311
-1.83791e-311
-1.86104e-310
-1.59111e-310
-2.07987e-310
-2.48607e-310
-1.92945e-310
-1.14836e-310
-3.84729e-311
-1.23127e-310
-4.12689e-311
-3.72359e-311
-8.55171e-312
-2.50992e-311
1.62525e-310
9.67369e-311
1.69674e-310
1.78382e-311
4.65668e-311
-8.62619e-311
7.5481e-312
-1.01639e-310
-3.20888e-310
-3.83717e-310
-2.78819e-310
-4.10074e-311
6.19284e-311
-3.24373e-311
-7.87933e-311
-1.00645e-311
-3.106e-311
1.23912e-310
2.76889e-311
1.12923e-310
-6.15671e-312
-4.85471e-311
-8.68473e-311
-1.41752e-310
-5.54491e-311
-1.65032e-311
-6.73345e-311
-4.14243e-311
1.93905e-311
1.32109e-310
4.42032e-311
3.85308e-311
-1.03393e-310
-1.0061e-310
-3.83354e-310
-4.82204e-310
-5.30174e-310
-5.3581e-310
-6.04572e-310
-8.41282e-310
-2.11269e-310
-4.37289e-310
-1.79867e-310
2.14605e-311
2.02272e-310
3.87998e-310
3.41995e-310
3.25205e-310
3.74681e-310
4.02327e-311
4.8007e-311
3.58421e-311
-1.48043e-311
-1.06785e-310
-1.52529e-310
-2.95466e-310
-1.37347e-310
5.84416e-311
1.67806e-310
2.27464e-310
2.3989e-310
4.04115e-310
2.61658e-310
1.22189e-311
-6.55138e-311
7.82319e-311
4.78097e-312
-2.9202e-311
-1.19391e-310
-1.753e-310
-1.98429e-310
-2.21164e-310
-2.33454e-310
-6.60138e-311
-4.88422e-311
-6.68163e-311
-3.08391e-311
-2.63205e-311
7.7974e-311
1.53467e-310
1.65285e-310
2.22166e-310
2.00307e-310
1.46314e-310
1.62775e-311
-6.92968e-311
3.19067e-311
-8.94031e-311
-3.57341e-310
-4.01098e-310
-2.69455e-310
4.24614e-311
4.33568e-311
-2.1335e-311
-5.79691e-311
1.14704e-310
9.54684e-311
2.14275e-310
1.3663e-310
9.15768e-311
-1.22236e-310
-1.60336e-310
-2.04285e-310
-1.63643e-310
-3.7263e-311
8.56919e-311
5.65972e-311
1.60492e-310
2.21597e-310
1.58505e-310
9.237e-311
-7.12965e-312
-1.95407e-310
-2.0727e-310
-3.87065e-310
-4.43619e-310
-5.65327e-310
-4.96699e-310
-4.04868e-310
-1.17659e-310
-4.98891e-310
-3.18168e-310
-1.24313e-310
-9.93801e-311
1.38819e-310
2.7336e-310
3.11047e-310
1.60928e-310
2.15732e-310
-3.18358e-311
4.93795e-311
1.48631e-310
1.67519e-311
-8.25821e-311
-8.79204e-311
-1.82875e-310
-1.06763e-310
2.8783e-311
1.14737e-310
6.59155e-311
1.96422e-310
3.05289e-310
3.01008e-310
2.4438e-310
6.98478e-311
1.05206e-310
-4.57829e-312
-1.00465e-311
-9.10131e-311
-1.17892e-310
-1.5487e-310
-1.32532e-310
-2.28747e-310
-1.3951e-310
-1.41053e-310
-1.13473e-310
-8.77804e-311
1.17993e-311
1.46958e-310
2.19631e-310
1.36014e-310
2.33304e-310
1.31678e-310
2.17882e-310
1.56038e-310
4.77709e-311
-3.0359e-311
-1.54669e-310
-3.85523e-310
-4.43472e-310
-2.24405e-310
1.40655e-310
2.13686e-310
4.14267e-311
4.56348e-311
1.62573e-310
2.42197e-311
2.23216e-310
1.81602e-310
5.03753e-311
2.41986e-311
-1.51037e-310
-1.4188e-310
-1.88478e-310
-1.53505e-312
2.68201e-311
2.99053e-311
1.31177e-310
1.7559e-310
1.32305e-310
6.84197e-311
-4.46222e-311
-2.32789e-310
-1.72744e-310
-2.29609e-310
-2.95766e-310
-6.52458e-310
-4.61376e-310
-6.24093e-310
-7.98523e-310
-3.08079e-310
-3.19537e-310
-3.70527e-310
-3.64931e-310
-3.11643e-311
1.64143e-310
1.52222e-310
1.23691e-310
3.1241e-311
-1.65529e-311
-4.25824e-311
1.24117e-310
2.58353e-312
4.28642e-311
-6.22664e-311
-1.51361e-310
-1.77826e-310
-5.49445e-311
1.42679e-310
1.48412e-310
1.20512e-310
1.60092e-310
2.46784e-310
2.1123e-310
1.92481e-310
1.09124e-310
-5.49364e-311
-1.02962e-311
-1.53834e-310
-1.61945e-310
-2.14722e-310
-1.0007e-310
-1.76197e-310
-2.49705e-310
-1.98404e-310
-1.54142e-310
-5.96699e-311
9.28716e-311
2.46877e-310
4.95663e-310
3.28289e-310
3.07033e-310
1.51713e-310
2.19992e-310
1.3644e-310
2.46362e-311
-1.028e-310
-3.044e-310
-3.70706e-310
-3.69127e-310
-3.55798e-311
2.17389e-310
2.65643e-310
4.64999e-311
6.12805e-311
1.26511e-310
3.22343e-312
2.02622e-310
1.57018e-310
-5.39433e-312
-3.78052e-311
-1.41057e-310
-1.57469e-310
-1.18936e-310
3.5695e-311
8.5545e-311
7.13068e-311
9.55796e-311
1.13954e-310
-1.48629e-311
-1.41453e-310
-8.54563e-311
-2.62289e-310
-1.02805e-310
-9.85924e-311
-1.71925e-310
-5.3987e-310
-6.50612e-310
-8.50253e-310
-1.37112e-309
-4.84727e-310
-3.90359e-310
-3.38989e-310
-3.50008e-310
-6.46018e-311
1.27545e-310
1.20322e-310
1.22361e-310
5.82375e-311
1.33064e-310
-1.84163e-311
3.60469e-311
-1.76531e-310
-1.26107e-311
-6.23168e-311
-1.73876e-310
-1.97367e-310
-7.05086e-311
8.62729e-311
1.23301e-310
1.2903e-310
1.26217e-310
2.08058e-310
2.16927e-310
3.01459e-310
2.02426e-310
3.4972e-311
-3.58586e-312
-1.60603e-310
-1.76151e-310
-2.68194e-310
-1.86788e-310
-1.68145e-310
-2.95186e-310
-1.63882e-310
-2.02592e-310
-8.53482e-312
1.83852e-310
2.68864e-310
4.915e-310
5.38278e-310
2.99822e-310
2.34214e-310
1.92306e-310
4.01866e-311
-9.63919e-311
-2.81596e-310
-3.92784e-310
-4.09762e-310
-3.24333e-310
2.05677e-311
2.24256e-310
3.04351e-310
1.62909e-310
1.05046e-310
1.09585e-310
1.16481e-310
1.93156e-310
1.79587e-310
3.21839e-311
-3.68617e-311
-1.45773e-310
-1.64308e-310
-6.99446e-311
8.82428e-311
1.15869e-310
1.25673e-310
1.26867e-310
4.90941e-311
-6.35766e-311
-5.85489e-311
-1.61157e-310
-3.05811e-310
-2.02262e-310
-2.73622e-310
-2.11261e-310
-5.15972e-310
-9.86987e-310
-8.52904e-310
-1.18913e-309
-3.84329e-310
-1.75141e-310
-2.67406e-310
-1.38746e-310
-2.30132e-310
-1.23843e-310
5.64147e-311
2.56265e-312
5.15014e-311
-3.86161e-311
-3.1259e-311
2.91205e-311
-1.6394e-310
-4.20576e-311
-5.25757e-311
-2.30971e-310
-1.69018e-310
-2.55993e-311
8.28702e-311
2.36804e-310
1.33032e-310
3.22144e-311
9.56687e-311
1.44417e-310
1.94128e-310
2.11199e-310
1.02299e-310
-4.49946e-311
-1.8908e-310
-2.22897e-310
-3.08505e-310
-1.90631e-310
-1.53615e-310
-2.86421e-310
-6.2939e-311
-1.6323e-310
-8.87782e-311
-1.27426e-311
1.59522e-310
4.308e-310
4.12794e-310
3.76187e-310
3.92499e-310
1.38389e-310
1.94824e-311
-1.40417e-310
-4.19243e-310
-5.05158e-310
-5.73446e-310
-2.99049e-310
6.73483e-311
1.70779e-310
2.60532e-310
1.75422e-310
2.34298e-310
1.67921e-310
1.46331e-310
1.34634e-310
9.01612e-311
5.753e-311
3.3912e-311
1.8932e-312
-8.6477e-311
-7.55384e-311
8.12441e-311
1.48774e-310
1.79038e-310
1.40901e-310
2.14951e-310
2.48684e-311
-1.74706e-310
-4.40468e-310
-4.10275e-310
-8.5268e-311
-9.36188e-311
-3.50181e-310
-6.30848e-310
-8.14483e-310
-7.14192e-310
-9.9876e-310
-4.51554e-310
-3.7989e-310
-1.24806e-310
1.12603e-311
1.53585e-310
3.58738e-311
9.65706e-311
3.29867e-311
1.22264e-310
-1.00861e-310
-1.41062e-310
-1.05102e-310
-7.84782e-311
-6.13512e-311
-1.0882e-310
-2.21087e-310
-2.01805e-310
-3.61221e-311
9.00844e-311
1.70054e-310
1.75783e-310
1.53145e-310
6.81646e-311
1.57345e-310
2.14756e-310
2.83542e-310
1.2164e-310
2.30557e-311
-1.4729e-310
-2.73171e-310
-3.22816e-310
-2.78728e-310
-2.29898e-310
-1.12066e-310
-4.73814e-311
-2.29602e-310
-2.82694e-311
-3.78735e-311
1.33793e-310
3.97253e-310
3.57103e-310
4.35357e-310
4.18384e-310
1.72696e-310
2.89866e-311
-2.54539e-310
-4.86984e-310
-5.0164e-310
-5.15623e-310
-3.28709e-310
2.77293e-311
2.57683e-310
2.02855e-310
9.903e-311
1.81728e-310
1.24659e-310
2.93871e-310
1.12957e-310
2.1252e-310
1.16349e-310
6.26855e-311
-7.52314e-311
-9.34238e-312
-3.31947e-311
-4.12941e-311
3.2083e-311
1.49062e-310
3.0447e-310
2.23831e-310
-5.82955e-311
-1.98172e-310
-4.32185e-310
-3.48673e-310
-9.31031e-311
-1.56912e-310
-4.23865e-310
-5.95696e-310
-6.82441e-310
-6.64381e-310
-9.6203e-310
-2.6458e-310
-2.72991e-310
-1.48752e-310
1.60968e-310
2.51697e-310
2.37694e-310
8.93435e-311
-3.53107e-311
-1.70552e-310
-2.97305e-310
-2.27237e-310
-2.31489e-310
-1.03719e-310
-8.16918e-311
-1.22926e-310
-1.84416e-310
-2.78328e-310
-2.57033e-310
1.79678e-311
1.04863e-310
1.52585e-310
2.27898e-310
1.39951e-310
1.62234e-310
1.42086e-310
1.85754e-310
7.59683e-311
-4.08225e-311
-1.98043e-310
-3.85005e-310
-4.17803e-310
-2.25191e-310
-1.86945e-310
-1.21427e-310
2.90629e-311
-1.89532e-310
-9.86333e-311
-3.19044e-311
1.42212e-310
3.03786e-310
3.04681e-310
3.75582e-310
4.48795e-310
3.76371e-310
8.77646e-311
-2.6021e-310
-5.4395e-310
-5.25691e-310
-4.45278e-310
-2.9713e-310
-5.49059e-311
1.47107e-310
2.82983e-310
1.89477e-310
2.17131e-310
2.71945e-310
2.84366e-310
2.65026e-310
2.58225e-310
8.65231e-311
-1.35631e-311
-1.03758e-310
6.12316e-311
-8.54089e-311
2.10197e-312
-4.1229e-311
1.72178e-310
3.43132e-310
1.30745e-310
7.74662e-311
-1.02959e-310
-2.02279e-310
-1.03562e-310
-1.73174e-310
-1.47288e-310
-5.10836e-310
-5.4022e-310
-8.34254e-310
-9.54199e-310
-1.07898e-309
4.41133e-310
1.48194e-310
3.01933e-310
1.13545e-310
3.46345e-310
3.55584e-310
2.19463e-310
-1.67848e-310
-2.43926e-310
-2.51843e-310
-3.92734e-310
-4.50104e-310
-7.38069e-311
-6.80963e-311
-1.46732e-310
-1.3493e-310
-2.2973e-310
-2.40324e-310
-2.38662e-310
8.98457e-311
1.93529e-310
1.90611e-310
1.34612e-310
1.52437e-310
1.9981e-310
8.23364e-311
2.66862e-311
-4.25882e-311
-2.05127e-310
-3.82971e-310
-3.7489e-310
-1.4372e-310
-1.70605e-310
-5.73648e-311
1.43378e-310
-8.24737e-311
-6.53215e-311
-9.68279e-311
9.13182e-311
2.62078e-310
3.33079e-310
4.03455e-310
5.43587e-310
4.77417e-310
1.01732e-310
-2.81107e-310
-5.65879e-310
-4.98315e-310
-4.84719e-310
-2.81434e-310
-8.17717e-311
1.50726e-310
1.95883e-310
2.22282e-310
3.01056e-310
3.15908e-310
3.34788e-310
1.50827e-310
1.08435e-310
2.67771e-311
4.79677e-311
-9.87657e-311
4.67222e-311
3.55767e-315
1.82098e-310
1.3287e-310
4.00424e-311
2.88848e-310
1.13914e-310
9.75433e-311
-1.31798e-310
-1.18465e-310
-1.41428e-310
-4.47669e-310
-4.04518e-310
-4.12396e-310
-8.26095e-310
-1.01123e-309
-1.09046e-309
-1.06694e-309
4.55234e-310
3.28652e-310
5.88922e-310
6.06178e-310
6.25963e-310
4.52593e-310
1.54479e-310
-1.41443e-310
-2.7494e-310
-4.27172e-310
-5.6949e-310
-5.54036e-310
-7.01983e-311
-7.64146e-311
-2.63287e-310
-2.2021e-310
-2.50768e-310
-1.56717e-310
-2.62709e-310
-6.06034e-311
7.56011e-311
2.12144e-310
1.40518e-310
1.20153e-310
1.22432e-310
2.01212e-311
-1.50966e-310
-1.9639e-310
-3.16996e-310
-3.83113e-310
-4.09252e-310
-1.52487e-310
-2.33799e-310
-7.70255e-311
7.31157e-311
-1.45068e-311
-9.17647e-311
-1.43302e-310
6.69048e-311
1.95864e-310
3.50306e-310
4.36375e-310
5.55551e-310
6.08509e-310
1.29661e-310
-2.68445e-310
-5.56823e-310
-4.43161e-310
-5.5666e-310
-2.42462e-310
-1.10009e-310
1.19299e-310
1.73674e-310
2.4828e-310
3.22334e-310
4.7745e-310
3.38198e-310
1.8873e-310
6.74084e-311
3.48946e-311
3.07314e-311
-5.72755e-311
1.10645e-310
1.40096e-310
2.23298e-310
1.49691e-310
1.52846e-310
1.61274e-310
2.12206e-310
1.82838e-310
-4.9708e-311
-1.28677e-310
-2.13435e-310
-5.23003e-310
-5.45047e-310
-8.3248e-310
-1.21121e-309
-1.21581e-309
-8.27003e-310
-7.55372e-310
7.55204e-310
8.32026e-310
5.69386e-310
6.86799e-310
6.34884e-310
2.85691e-310
1.96484e-310
2.36322e-311
-2.53108e-310
-4.11798e-310
-5.77315e-310
-5.48509e-310
-1.51822e-310
-1.47602e-310
-1.75721e-310
-8.36464e-311
-1.57398e-310
-1.52725e-310
-2.314e-310
-6.69499e-311
2.95266e-311
1.65064e-310
3.62946e-310
2.49956e-310
1.1708e-310
-1.68293e-310
-2.37458e-310
-1.3291e-310
-3.7057e-310
-4.32789e-310
-3.33339e-310
-1.91962e-310
-2.00353e-310
-4.77569e-311
4.22138e-311
-1.33894e-311
-1.42971e-310
-2.38436e-310
-6.82942e-312
9.21431e-311
2.46695e-310
3.7326e-310
5.42581e-310
6.25253e-310
3.11831e-310
-1.86153e-310
-4.95644e-310
-5.2942e-310
-4.08882e-310
-1.89303e-310
-5.56515e-311
1.43232e-310
2.65316e-310
2.68946e-310
3.21163e-310
4.17405e-310
2.86866e-310
2.7303e-310
1.47813e-310
2.00869e-311
3.34752e-311
1.27681e-311
2.8421e-310
1.6675e-310
1.128e-310
2.03063e-310
1.34506e-310
1.49648e-310
2.53953e-310
2.05276e-310
3.37865e-311
-2.88818e-310
-2.61381e-310
-5.75697e-310
-5.71663e-310
-5.97056e-310
-1.05653e-309
-1.01655e-309
-7.17877e-310
-2.65655e-310
9.15878e-310
9.36178e-310
8.49356e-310
1.02497e-309
8.91345e-310
5.14038e-310
3.73655e-310
2.13566e-310
-2.30518e-310
-3.97425e-310
-3.79585e-310
-4.24887e-310
-1.74702e-310
-7.72333e-312
-1.37301e-310
-1.81116e-310
-1.71129e-310
-1.19903e-310
-2.77311e-310
-7.75478e-311
2.96232e-311
1.33568e-310
3.04811e-310
2.86354e-310
5.48702e-311
-1.64722e-310
-1.42177e-310
-7.88992e-311
-3.33497e-310
-3.67326e-310
-3.43644e-310
-2.67693e-310
-2.35687e-310
-1.86565e-311
-8.0274e-311
-2.58004e-311
-1.51118e-310
-1.50737e-310
-4.37611e-311
1.41368e-310
1.87469e-310
4.35115e-310
6.26666e-310
5.11217e-310
2.54774e-310
-2.55359e-310
-3.98154e-310
-3.88525e-310
-2.6403e-310
-1.59446e-310
-3.46462e-311
1.17661e-310
1.7898e-310
2.18672e-310
2.71852e-310
3.90181e-310
4.18892e-310
2.47862e-310
1.52707e-310
-2.61415e-311
6.25704e-311
2.97755e-311
2.18624e-310
1.98361e-310
1.69451e-310
2.87183e-310
9.95862e-311
6.11652e-311
1.06228e-310
1.40106e-310
1.28563e-311
-2.6664e-310
-4.96904e-310
-8.21554e-310
-7.849e-310
-5.64873e-310
-9.17894e-310
-6.29322e-310
-3.57912e-310
-1.73443e-310
7.53477e-310
8.34857e-310
8.69009e-310
8.56237e-310
9.0762e-310
3.96827e-310
2.52166e-310
1.82265e-310
-1.01706e-310
-4.16045e-310
-5.37598e-310
-5.17727e-310
-1.51451e-310
-1.18544e-310
-9.92873e-311
-1.35402e-310
-2.4696e-310
-2.16846e-310
-2.85623e-310
-1.86087e-310
-9.89479e-311
8.58499e-311
2.35076e-310
2.59889e-310
6.3073e-311
-1.75542e-310
-1.39765e-310
-9.58969e-311
-3.3474e-310
-4.05145e-310
-3.02226e-310
-2.5294e-310
-1.69468e-310
-1.10765e-311
-8.69296e-311
-5.31255e-311
-1.86439e-310
-1.31835e-310
-8.34842e-311
8.49654e-311
2.40325e-310
3.87071e-310
5.38152e-310
4.18117e-310
2.8697e-310
-1.84167e-310
-2.97543e-310
-2.84569e-310
-1.70352e-310
-1.6572e-310
-1.10655e-310
2.30667e-311
6.93242e-312
1.27785e-310
3.63121e-310
3.89806e-310
3.74276e-310
2.49047e-310
3.83408e-311
4.20874e-311
1.58212e-310
8.68851e-311
1.35212e-310
2.36538e-310
2.93785e-310
3.12102e-310
4.79394e-311
-7.03521e-311
1.54013e-310
2.06956e-310
5.87598e-311
-4.67898e-310
-6.85026e-310
-7.55331e-310
-9.09591e-310
-7.91663e-310
-8.07974e-310
-7.8316e-310
-5.90733e-310
-3.49213e-310
8.14117e-310
5.10037e-310
5.19411e-310
5.32401e-310
7.64062e-310
4.71515e-310
1.48691e-310
1.45611e-310
-9.77158e-311
-3.85107e-310
-5.72187e-310
-5.05802e-310
-1.61999e-310
-1.86457e-310
-3.64578e-311
-6.19628e-311
-1.62889e-310
-2.24262e-310
-3.43958e-310
-3.73383e-310
-1.25848e-310
8.2599e-312
1.4509e-310
1.82692e-310
1.45948e-310
-6.93511e-311
-1.54781e-312
-6.09393e-311
-2.62806e-310
-3.19727e-310
-3.38464e-310
-2.45335e-310
-2.69991e-310
-1.52026e-310
-1.46534e-310
-1.31929e-310
-2.92277e-310
-2.39482e-310
-1.91348e-310
7.73449e-311
1.41633e-310
2.58266e-310
4.70673e-310
4.38769e-310
1.59571e-310
-2.26128e-310
-1.14954e-310
-2.06459e-310
-4.15086e-311
-1.50227e-310
-1.14679e-310
-3.31372e-311
-7.28659e-311
5.58418e-311
3.29596e-310
4.2429e-310
3.52654e-310
2.60089e-310
4.42169e-311
1.72616e-310
3.23625e-310
2.565e-310
2.814e-310
1.90164e-310
3.15921e-310
3.41541e-310
8.92842e-311
1.32848e-310
3.29983e-310
3.07265e-310
6.16786e-311
-3.95208e-310
-6.86772e-310
-7.53431e-310
-6.43408e-310
-7.08827e-310
-7.42234e-310
-8.91891e-310
-6.36352e-310
-5.83846e-310
1.26762e-309
1.18755e-309
1.23894e-309
8.23795e-310
7.23583e-310
4.08831e-310
2.56518e-310
1.09722e-310
-2.97124e-311
-4.11648e-310
-7.49844e-310
-6.16891e-310
-2.50282e-310
1.03974e-310
1.578e-310
-9.54799e-311
-1.4069e-310
-3.06732e-310
-3.71796e-310
-3.59205e-310
-2.59586e-310
-1.02318e-310
9.44231e-311
1.92095e-310
1.3837e-310
4.66824e-312
5.74982e-311
8.72545e-312
-2.13208e-310
-3.1471e-310
-3.17612e-310
-1.32167e-310
-2.60216e-310
-1.64645e-310
-2.44788e-310
-2.20786e-310
-2.93854e-310
-2.58666e-310
-1.38879e-310
-8.82625e-311
1.95114e-310
2.50018e-310
3.65772e-310
3.31311e-310
2.08342e-310
-1.84476e-311
-3.55067e-311
-2.12644e-310
-6.72983e-311
-1.48801e-310
-1.42609e-310
-2.05506e-310
-2.22409e-310
1.66071e-311
3.91203e-310
3.61349e-310
3.83367e-310
2.31069e-310
-1.00372e-311
2.37606e-310
2.72098e-310
4.84174e-310
3.55618e-310
1.85596e-310
2.54083e-310
3.9214e-310
2.00995e-310
2.07325e-310
2.72342e-310
7.37094e-311
-9.97772e-311
-7.54322e-311
-3.31472e-310
-4.97872e-310
-6.4694e-310
-5.05614e-310
-8.16706e-310
-7.64615e-310
-8.33463e-310
-1.12631e-309
1.18702e-309
1.17106e-309
9.35203e-310
1.03694e-309
7.97339e-310
4.35373e-310
2.61978e-310
5.97722e-311
-2.21112e-310
-3.16416e-310
-5.17639e-310
-5.01386e-310
-1.01518e-310
9.937e-311
6.60871e-311
-1.03674e-310
-1.66307e-310
-2.18556e-310
-2.36316e-310
-2.79208e-310
-2.24457e-310
-1.15591e-310
2.59347e-311
1.58068e-310
1.27608e-310
1.203e-310
5.52276e-311
1.01684e-310
-1.874e-310
-3.15974e-310
-1.73432e-310
-1.18956e-310
-1.51949e-310
-1.6105e-310
-2.71085e-310
-2.71793e-310
-3.49464e-310
-3.20613e-310
-2.19681e-310
-5.82068e-311
1.91696e-310
2.38269e-310
2.42563e-310
3.64862e-310
2.7081e-310
9.87004e-311
-7.96571e-311
-2.42069e-310
-9.90782e-311
-2.41864e-310
-2.787e-310
-2.26458e-310
-2.19328e-310
3.76575e-312
1.98588e-310
3.71533e-310
3.48504e-310
2.40578e-310
8.74507e-311
1.97937e-310
3.8395e-310
5.01061e-310
3.60015e-310
3.25583e-310
2.27869e-310
2.2255e-310
2.34177e-310
3.6667e-310
2.9115e-310
3.2968e-311
-1.78373e-310
7.35794e-312
-2.71109e-310
-4.78373e-310
-6.53858e-310
-2.50078e-310
-5.92015e-310
-8.81924e-310
-9.00508e-310
-1.04641e-309
1.30514e-309
8.93345e-310
8.80532e-310
1.06781e-309
9.04635e-310
2.79628e-310
1.69894e-310
2.10386e-311
-1.56631e-310
-3.71737e-310
-5.26724e-310
-4.91958e-310
-1.08779e-310
1.91163e-310
-5.48603e-311
-1.24432e-310
-2.32993e-310
-1.8513e-310
-1.64661e-310
-2.03678e-310
-6.91171e-311
-8.78312e-311
6.97643e-311
1.83275e-310
1.35228e-310
1.48899e-310
2.21219e-311
7.27727e-311
-1.72464e-310
-1.93744e-310
-4.05675e-311
-4.87707e-311
-1.99739e-310
-1.73467e-310
-1.38114e-310
-1.37676e-310
-2.04437e-310
-3.27915e-310
-1.4255e-310
-2.64735e-311
3.38808e-311
1.65639e-310
2.41066e-310
3.6293e-310
2.05499e-310
9.50898e-311
-5.93855e-311
-1.55787e-310
-1.493e-310
-2.19621e-310
-1.30506e-310
-1.57908e-310
-2.72855e-310
-3.1978e-311
2.01907e-310
3.14722e-310
3.70862e-310
4.28183e-310
3.65771e-310
2.7212e-310
1.56819e-310
2.85835e-310
4.62656e-310
4.57131e-310
2.6714e-310
1.28314e-310
8.69051e-311
2.39694e-310
3.06551e-310
-4.08053e-311
-1.75187e-310
-1.33164e-310
-3.04184e-310
-6.55114e-310
-7.8058e-310
-4.0124e-310
-5.37579e-310
-7.45959e-310
-6.82178e-310
-5.41687e-310
1.67619e-309
9.36409e-310
8.92456e-310
1.02405e-309
8.42361e-310
5.18705e-310
3.31836e-310
8.31384e-312
-1.07467e-311
-4.70751e-310
-4.18279e-310
-3.97466e-310
-1.34426e-310
4.07724e-312
-9.38384e-311
-2.01827e-310
-4.68814e-310
-3.34827e-310
-2.47809e-310
-2.54476e-310
-1.06635e-310
-1.14791e-310
1.43972e-310
1.80612e-310
4.53683e-311
3.91873e-311
4.71593e-311
1.02727e-311
-8.81225e-311
-1.08594e-310
2.80834e-311
-9.84193e-312
-2.74444e-310
-1.69709e-310
-1.05148e-310
-1.16599e-310
-1.47916e-310
-2.13355e-310
-2.23723e-310
-1.00164e-310
-6.91701e-311
1.12518e-310
2.52867e-310
4.01413e-310
1.49337e-310
7.82129e-311
-2.96779e-311
-1.17366e-310
-1.63519e-310
-1.22171e-310
-7.70163e-311
-9.41197e-311
-1.48826e-310
9.21012e-311
2.29008e-310
3.50617e-310
3.88283e-310
3.67606e-310
3.40124e-310
4.21989e-310
2.70149e-310
1.3127e-310
4.78088e-310
6.07766e-310
2.75053e-310
2.07055e-310
2.10187e-310
1.37596e-310
2.47134e-310
-7.48044e-311
-1.9717e-310
-1.54911e-310
-3.53611e-310
-4.89476e-310
-3.37814e-310
-2.40436e-310
-1.91285e-310
-5.36374e-310
-2.51268e-310
-6.48711e-311
1.44727e-309
1.39708e-309
1.12598e-309
7.134e-310
6.56105e-310
5.47906e-310
3.63083e-310
-1.21655e-310
-6.66097e-311
-3.29566e-310
-3.48741e-310
-3.4916e-310
-2.86502e-312
4.71579e-311
8.03438e-311
-1.61144e-310
-5.19832e-310
-4.65945e-310
-3.1099e-310
-2.59315e-310
-1.33325e-310
-1.63588e-310
-3.75075e-311
7.7473e-312
-3.00605e-311
4.9864e-311
-2.46438e-311
-3.42399e-311
-2.30742e-310
-1.72368e-310
-1.06379e-310
-9.95286e-311
-2.00947e-310
-8.83153e-311
-2.66947e-312
-9.503e-311
-1.5358e-310
-1.08524e-310
-1.2131e-310
-2.22983e-310
-1.12529e-310
-7.15211e-311
1.73141e-310
3.29445e-310
1.36555e-310
5.46144e-311
3.25616e-312
-4.08011e-311
-1.53454e-310
-1.2114e-310
-6.46489e-311
-8.40342e-311
-2.58012e-311
2.01295e-310
2.7524e-310
3.07283e-310
2.90164e-310
4.30577e-310
3.05423e-310
3.31185e-310
3.41725e-310
4.11947e-311
3.75983e-310
5.75636e-310
2.48093e-310
1.40274e-310
1.79263e-310
-3.04084e-311
2.07524e-310
-7.28435e-311
-3.05185e-310
-1.66764e-310
-4.59555e-310
-6.37771e-310
-4.4814e-310
-2.11901e-310
-1.40696e-310
-1.98365e-310
-2.20763e-311
-1.27002e-310
9.55932e-310
9.46158e-310
8.10294e-310
6.70414e-310
8.99811e-310
6.35893e-310
2.90134e-310
2.2235e-312
1.17407e-310
-2.38559e-310
-2.32943e-310
-2.90422e-310
-1.08904e-310
8.69648e-311
-9.48938e-312
-3.42277e-310
-6.49293e-310
-3.87961e-310
-2.13672e-310
-1.97665e-310
-1.27895e-310
-3.7855e-311
9.34724e-311
-1.23086e-311
5.78269e-311
1.84745e-310
4.52857e-311
-6.56149e-311
-1.33379e-310
-1.76806e-310
-1.59839e-311
-8.20828e-311
-1.69648e-310
-1.30889e-310
9.73784e-312
-1.30088e-310
-1.27384e-310
-1.21556e-310
-1.40512e-310
-2.30885e-310
-7.73787e-311
-9.87069e-311
3.54474e-311
1.92053e-310
1.85524e-310
7.81444e-311
4.16149e-311
2.07002e-311
-1.11119e-310
-1.6491e-310
-3.75143e-311
-4.16e-311
-6.55722e-311
1.11562e-310
3.19767e-310
4.00653e-310
2.96519e-310
4.20461e-310
2.62785e-310
4.06401e-310
3.3972e-310
2.94867e-310
3.83668e-310
5.08374e-310
3.13647e-310
1.21418e-310
2.68214e-310
1.3278e-310
2.04375e-310
-2.58557e-311
-1.40633e-310
-1.08474e-310
-5.5252e-310
-5.78268e-310
-3.4724e-310
-1.09082e-310
6.37751e-311
7.43339e-311
1.99477e-310
3.84992e-310
1.41311e-309
1.35301e-309
1.02006e-309
8.49142e-310
8.8579e-310
7.57097e-310
3.78561e-310
1.68852e-310
7.91387e-311
4.20528e-311
-2.21768e-310
-2.50588e-310
6.51559e-311
-1.55879e-310
-1.03858e-310
-5.04194e-310
-6.2652e-310
-3.63782e-310
-1.84459e-310
-1.95595e-310
-5.04587e-311
-4.3219e-312
7.35478e-311