/*--------------------------------*- C++ -*----------------------------------*\
  =========                 |
  \\      /  F ield         | OpenFOAM: The Open Source CFD Toolbox
   \\    /   O peration     | Website:  https://openfoam.org
    \\  /    A nd           | Version:  11
     \\/     M anipulation  |
\*---------------------------------------------------------------------------*/
FoamFile
{
    format      ascii;
    class       volScalarField;
    location    "330";
    object      p;
}
// * * * * * * * * * * * * * * * * * * * * * * * * * * * * * * * * * * * * * //

dimensions      [0 2 -2 0 0 0 0];

internalField   nonuniform List<scalar> 
332800
(
0.540249
0.536074
0.533145
0.531459
0.530344
0.529522
0.528905
0.528437
0.528077
0.527796
0.527571
0.52739
0.52724
0.527115
0.52701
0.526919
0.526841
0.526773
0.526713
0.526659
0.526612
0.52657
0.526532
0.526498
0.526467
0.526439
0.526415
0.526392
0.526372
0.526354
0.526339
0.526325
0.526312
0.526302
0.526293
0.526286
0.52628
0.526276
0.526273
0.526271
0.526271
0.526273
0.526276
0.52628
0.526286
0.526293
0.526302
0.526312
0.526325
0.526339
0.526354
0.526372
0.526392
0.526415
0.526439
0.526467
0.526498
0.526532
0.52657
0.526612
0.526659
0.526713
0.526773
0.526841
0.526919
0.52701
0.527115
0.52724
0.52739
0.527571
0.527796
0.528077
0.528437
0.528905
0.529522
0.530344
0.531459
0.533145
0.536074
0.540249
0.530927
0.530676
0.530253
0.529779
0.529325
0.528917
0.52856
0.528254
0.527994
0.527773
0.527585
0.527425
0.527287
0.527168
0.527065
0.526975
0.526896
0.526826
0.526764
0.526709
0.52666
0.526615
0.526576
0.52654
0.526508
0.526479
0.526453
0.52643
0.526409
0.526391
0.526374
0.52636
0.526347
0.526336
0.526327
0.526319
0.526313
0.526309
0.526306
0.526304
0.526304
0.526306
0.526309
0.526313
0.526319
0.526327
0.526336
0.526347
0.52636
0.526374
0.526391
0.526409
0.52643
0.526453
0.526479
0.526508
0.52654
0.526576
0.526615
0.52666
0.526709
0.526764
0.526826
0.526896
0.526975
0.527065
0.527168
0.527287
0.527425
0.527585
0.527773
0.527994
0.528254
0.52856
0.528917
0.529325
0.529779
0.530253
0.530676
0.530927
0.528594
0.528793
0.528887
0.528801
0.528627
0.528426
0.528221
0.528024
0.527842
0.527676
0.527526
0.527393
0.527274
0.527169
0.527075
0.526991
0.526917
0.52685
0.52679
0.526736
0.526688
0.526644
0.526605
0.526569
0.526537
0.526508
0.526482
0.526459
0.526438
0.526419
0.526402
0.526388
0.526375
0.526364
0.526354
0.526347
0.526341
0.526336
0.526333
0.526332
0.526332
0.526333
0.526336
0.526341
0.526347
0.526354
0.526364
0.526375
0.526388
0.526402
0.526419
0.526438
0.526459
0.526482
0.526508
0.526537
0.526569
0.526605
0.526644
0.526688
0.526736
0.52679
0.52685
0.526917
0.526991
0.527075
0.527169
0.527274
0.527393
0.527526
0.527676
0.527842
0.528024
0.528221
0.528426
0.528627
0.528801
0.528887
0.528793
0.528594
0.527686
0.52788
0.528024
0.528055
0.528013
0.527934
0.527834
0.527724
0.527611
0.527501
0.527395
0.527295
0.527203
0.527118
0.527039
0.526968
0.526903
0.526843
0.526789
0.52674
0.526695
0.526654
0.526617
0.526583
0.526552
0.526524
0.526499
0.526476
0.526456
0.526438
0.526421
0.526407
0.526394
0.526383
0.526374
0.526367
0.526361
0.526356
0.526353
0.526352
0.526352
0.526353
0.526356
0.526361
0.526367
0.526374
0.526383
0.526394
0.526407
0.526421
0.526438
0.526456
0.526476
0.526499
0.526524
0.526552
0.526583
0.526617
0.526654
0.526695
0.52674
0.526789
0.526843
0.526903
0.526968
0.527039
0.527118
0.527203
0.527295
0.527395
0.527501
0.527611
0.527724
0.527834
0.527934
0.528013
0.528055
0.528024
0.52788
0.527686
0.527209
0.52736
0.527489
0.527552
0.527566
0.527547
0.527507
0.527451
0.527387
0.527317
0.527246
0.527176
0.527108
0.527042
0.52698
0.526922
0.526868
0.526817
0.52677
0.526727
0.526687
0.52665
0.526616
0.526585
0.526556
0.52653
0.526507
0.526485
0.526466
0.526448
0.526433
0.526419
0.526407
0.526397
0.526388
0.526381
0.526375
0.52637
0.526368
0.526366
0.526366
0.526368
0.52637
0.526375
0.526381
0.526388
0.526397
0.526407
0.526419
0.526433
0.526448
0.526466
0.526485
0.526507
0.52653
0.526556
0.526585
0.526616
0.52665
0.526687
0.526727
0.52677
0.526817
0.526868
0.526922
0.52698
0.527042
0.527108
0.527176
0.527246
0.527317
0.527387
0.527451
0.527507
0.527547
0.527566
0.527552
0.527489
0.52736
0.527209
0.526933
0.527044
0.527147
0.527211
0.527244
0.527252
0.527243
0.527219
0.527185
0.527144
0.527099
0.527052
0.527003
0.526955
0.526908
0.526862
0.526818
0.526777
0.526738
0.526701
0.526666
0.526634
0.526604
0.526576
0.526551
0.526527
0.526506
0.526486
0.526468
0.526452
0.526438
0.526425
0.526414
0.526404
0.526395
0.526389
0.526383
0.526379
0.526376
0.526375
0.526375
0.526376
0.526379
0.526383
0.526389
0.526395
0.526404
0.526414
0.526425
0.526438
0.526452
0.526468
0.526486
0.526506
0.526527
0.526551
0.526576
0.526604
0.526634
0.526666
0.526701
0.526738
0.526777
0.526818
0.526862
0.526908
0.526955
0.527003
0.527052
0.527099
0.527144
0.527185
0.527219
0.527243
0.527252
0.527244
0.527211
0.527147
0.527044
0.526933
0.526754
0.526836
0.526916
0.526973
0.527009
0.527028
0.527034
0.527028
0.527013
0.526991
0.526964
0.526933
0.526899
0.526865
0.52683
0.526795
0.526761
0.526728
0.526696
0.526666
0.526637
0.52661
0.526584
0.52656
0.526538
0.526517
0.526498
0.52648
0.526464
0.526449
0.526436
0.526424
0.526414
0.526405
0.526397
0.526391
0.526386
0.526382
0.52638
0.526378
0.526378
0.52638
0.526382
0.526386
0.526391
0.526397
0.526405
0.526414
0.526424
0.526436
0.526449
0.526464
0.52648
0.526498
0.526517
0.526538
0.52656
0.526584
0.52661
0.526637
0.526666
0.526696
0.526728
0.526761
0.526795
0.52683
0.526865
0.526899
0.526933
0.526964
0.526991
0.527013
0.527028
0.527034
0.527028
0.527009
0.526973
0.526916
0.526836
0.526754
0.526629
0.526691
0.526753
0.526801
0.526834
0.526857
0.526869
0.526872
0.526868
0.526858
0.526843
0.526824
0.526802
0.526778
0.526753
0.526727
0.526701
0.526675
0.52665
0.526626
0.526602
0.526579
0.526558
0.526537
0.526518
0.5265
0.526483
0.526468
0.526454
0.526441
0.526429
0.526418
0.526409
0.526401
0.526394
0.526388
0.526384
0.52638
0.526378
0.526377
0.526377
0.526378
0.52638
0.526384
0.526388
0.526394
0.526401
0.526409
0.526418
0.526429
0.526441
0.526454
0.526468
0.526483
0.5265
0.526518
0.526537
0.526558
0.526579
0.526602
0.526626
0.52665
0.526675
0.526701
0.526727
0.526753
0.526778
0.526802
0.526824
0.526843
0.526858
0.526868
0.526872
0.526869
0.526857
0.526834
0.526801
0.526753
0.526691
0.526629
0.526535
0.526583
0.526632
0.526671
0.526701
0.526723
0.526738
0.526746
0.526748
0.526745
0.526737
0.526726
0.526712
0.526696
0.526679
0.52666
0.526641
0.526621
0.526601
0.526582
0.526563
0.526544
0.526527
0.52651
0.526494
0.526478
0.526464
0.526451
0.526438
0.526427
0.526417
0.526408
0.526399
0.526392
0.526386
0.526381
0.526377
0.526374
0.526372
0.526371
0.526371
0.526372
0.526374
0.526377
0.526381
0.526386
0.526392
0.526399
0.526408
0.526417
0.526427
0.526438
0.526451
0.526464
0.526478
0.526494
0.52651
0.526527
0.526544
0.526563
0.526582
0.526601
0.526621
0.526641
0.52666
0.526679
0.526696
0.526712
0.526726
0.526737
0.526745
0.526748
0.526746
0.526738
0.526723
0.526701
0.526671
0.526632
0.526583
0.526535
0.526463
0.5265
0.526539
0.526571
0.526597
0.526617
0.526632
0.526642
0.526647
0.526648
0.526645
0.52664
0.526632
0.526621
0.526609
0.526596
0.526582
0.526567
0.526552
0.526537
0.526522
0.526507
0.526493
0.526479
0.526466
0.526453
0.526441
0.52643
0.526419
0.52641
0.526401
0.526393
0.526386
0.526379
0.526374
0.52637
0.526366
0.526363
0.526362
0.526361
0.526361
0.526362
0.526363
0.526366
0.52637
0.526374
0.526379
0.526386
0.526393
0.526401
0.52641
0.526419
0.52643
0.526441
0.526453
0.526466
0.526479
0.526493
0.526507
0.526522
0.526537
0.526552
0.526567
0.526582
0.526596
0.526609
0.526621
0.526632
0.52664
0.526645
0.526648
0.526647
0.526642
0.526632
0.526617
0.526597
0.526571
0.526539
0.5265
0.526463
0.526404
0.526434
0.526465
0.526491
0.526513
0.526531
0.526545
0.526555
0.526562
0.526565
0.526566
0.526563
0.526559
0.526553
0.526545
0.526536
0.526526
0.526515
0.526504
0.526492
0.526481
0.526469
0.526458
0.526446
0.526435
0.526425
0.526415
0.526406
0.526397
0.526389
0.526381
0.526375
0.526369
0.526363
0.526359
0.526355
0.526352
0.526349
0.526348
0.526347
0.526347
0.526348
0.526349
0.526352
0.526355
0.526359
0.526363
0.526369
0.526375
0.526381
0.526389
0.526397
0.526406
0.526415
0.526425
0.526435
0.526446
0.526458
0.526469
0.526481
0.526492
0.526504
0.526515
0.526526
0.526536
0.526545
0.526553
0.526559
0.526563
0.526566
0.526565
0.526562
0.526555
0.526545
0.526531
0.526513
0.526491
0.526465
0.526434
0.526404
0.526355
0.526379
0.526404
0.526426
0.526444
0.52646
0.526472
0.526482
0.526489
0.526494
0.526496
0.526496
0.526494
0.526491
0.526486
0.52648
0.526473
0.526465
0.526457
0.526448
0.526439
0.52643
0.526421
0.526412
0.526404
0.526395
0.526387
0.526379
0.526372
0.526365
0.526359
0.526354
0.526348
0.526344
0.52634
0.526337
0.526334
0.526332
0.526331
0.52633
0.52633
0.526331
0.526332
0.526334
0.526337
0.52634
0.526344
0.526348
0.526354
0.526359
0.526365
0.526372
0.526379
0.526387
0.526395
0.526404
0.526412
0.526421
0.52643
0.526439
0.526448
0.526457
0.526465
0.526473
0.52648
0.526486
0.526491
0.526494
0.526496
0.526496
0.526494
0.526489
0.526482
0.526472
0.52646
0.526444
0.526426
0.526404
0.526379
0.526355
0.526313
0.526332
0.526352
0.52637
0.526386
0.526399
0.52641
0.526419
0.526426
0.526431
0.526435
0.526436
0.526436
0.526434
0.526432
0.526428
0.526423
0.526418
0.526412
0.526405
0.526399
0.526392
0.526385
0.526378
0.526371
0.526364
0.526358
0.526351
0.526346
0.52634
0.526335
0.52633
0.526326
0.526322
0.526319
0.526316
0.526314
0.526312
0.526311
0.526311
0.526311
0.526311
0.526312
0.526314
0.526316
0.526319
0.526322
0.526326
0.52633
0.526335
0.52634
0.526346
0.526351
0.526358
0.526364
0.526371
0.526378
0.526385
0.526392
0.526399
0.526405
0.526412
0.526418
0.526423
0.526428
0.526432
0.526434
0.526436
0.526436
0.526435
0.526431
0.526426
0.526419
0.52641
0.526399
0.526386
0.52637
0.526352
0.526332
0.526313
0.526275
0.526291
0.526308
0.526322
0.526335
0.526347
0.526356
0.526365
0.526371
0.526376
0.52638
0.526382
0.526383
0.526383
0.526381
0.526379
0.526376
0.526373
0.526368
0.526364
0.526359
0.526354
0.526348
0.526343
0.526338
0.526332
0.526327
0.526322
0.526317
0.526313
0.526309
0.526305
0.526302
0.526299
0.526296
0.526294
0.526292
0.52629
0.52629
0.526289
0.526289
0.52629
0.52629
0.526292
0.526294
0.526296
0.526299
0.526302
0.526305
0.526309
0.526313
0.526317
0.526322
0.526327
0.526332
0.526338
0.526343
0.526348
0.526354
0.526359
0.526364
0.526368
0.526373
0.526376
0.526379
0.526381
0.526383
0.526383
0.526382
0.52638
0.526376
0.526371
0.526365
0.526356
0.526347
0.526335
0.526322
0.526308
0.526291
0.526275
0.526241
0.526254
0.526268
0.52628
0.526291
0.5263
0.526309
0.526316
0.526322
0.526327
0.526331
0.526333
0.526335
0.526335
0.526335
0.526334
0.526332
0.52633
0.526327
0.526324
0.52632
0.526316
0.526312
0.526308
0.526304
0.5263
0.526296
0.526292
0.526288
0.526285
0.526282
0.526279
0.526276
0.526273
0.526271
0.526269
0.526268
0.526267
0.526266
0.526266
0.526266
0.526266
0.526267
0.526268
0.526269
0.526271
0.526273
0.526276
0.526279
0.526282
0.526285
0.526288
0.526292
0.526296
0.5263
0.526304
0.526308
0.526312
0.526316
0.52632
0.526324
0.526327
0.52633
0.526332
0.526334
0.526335
0.526335
0.526335
0.526333
0.526331
0.526327
0.526322
0.526316
0.526309
0.5263
0.526291
0.52628
0.526268
0.526254
0.526241
0.52621
0.52622
0.526231
0.526241
0.52625
0.526258
0.526266
0.526272
0.526278
0.526282
0.526286
0.526288
0.52629
0.526291
0.526292
0.526291
0.52629
0.526289
0.526287
0.526285
0.526283
0.52628
0.526277
0.526274
0.526271
0.526268
0.526265
0.526262
0.526259
0.526256
0.526253
0.526251
0.526249
0.526247
0.526245
0.526243
0.526242
0.526241
0.526241
0.52624
0.52624
0.526241
0.526241
0.526242
0.526243
0.526245
0.526247
0.526249
0.526251
0.526253
0.526256
0.526259
0.526262
0.526265
0.526268
0.526271
0.526274
0.526277
0.52628
0.526283
0.526285
0.526287
0.526289
0.52629
0.526291
0.526292
0.526291
0.52629
0.526288
0.526286
0.526282
0.526278
0.526272
0.526266
0.526258
0.52625
0.526241
0.526231
0.52622
0.52621
0.52618
0.526188
0.526197
0.526206
0.526213
0.52622
0.526226
0.526232
0.526237
0.526241
0.526244
0.526247
0.526249
0.52625
0.526251
0.526251
0.526251
0.52625
0.526249
0.526248
0.526246
0.526244
0.526242
0.52624
0.526238
0.526235
0.526233
0.526231
0.526229
0.526226
0.526224
0.526222
0.526221
0.526219
0.526218
0.526217
0.526216
0.526215
0.526215
0.526214
0.526214
0.526215
0.526215
0.526216
0.526217
0.526218
0.526219
0.526221
0.526222
0.526224
0.526226
0.526229
0.526231
0.526233
0.526235
0.526238
0.52624
0.526242
0.526244
0.526246
0.526248
0.526249
0.52625
0.526251
0.526251
0.526251
0.52625
0.526249
0.526247
0.526244
0.526241
0.526237
0.526232
0.526226
0.52622
0.526213
0.526206
0.526197
0.526188
0.52618
0.526151
0.526158
0.526165
0.526172
0.526178
0.526184
0.52619
0.526194
0.526199
0.526202
0.526205
0.526208
0.52621
0.526211
0.526212
0.526213
0.526213
0.526213
0.526213
0.526212
0.526211
0.526209
0.526208
0.526207
0.526205
0.526203
0.526201
0.5262
0.526198
0.526196
0.526195
0.526193
0.526192
0.526191
0.52619
0.526189
0.526188
0.526188
0.526187
0.526187
0.526187
0.526187
0.526188
0.526188
0.526189
0.52619
0.526191
0.526192
0.526193
0.526195
0.526196
0.526198
0.5262
0.526201
0.526203
0.526205
0.526207
0.526208
0.526209
0.526211
0.526212
0.526213
0.526213
0.526213
0.526213
0.526212
0.526211
0.52621
0.526208
0.526205
0.526202
0.526199
0.526194
0.52619
0.526184
0.526178
0.526172
0.526165
0.526158
0.526151
0.526123
0.526129
0.526135
0.52614
0.526146
0.526151
0.526155
0.526159
0.526163
0.526166
0.526169
0.526171
0.526173
0.526175
0.526176
0.526177
0.526177
0.526177
0.526177
0.526177
0.526176
0.526175
0.526175
0.526174
0.526172
0.526171
0.52617
0.526169
0.526167
0.526166
0.526165
0.526164
0.526163
0.526162
0.526161
0.526161
0.52616
0.52616
0.526159
0.526159
0.526159
0.526159
0.52616
0.52616
0.526161
0.526161
0.526162
0.526163
0.526164
0.526165
0.526166
0.526167
0.526169
0.52617
0.526171
0.526172
0.526174
0.526175
0.526175
0.526176
0.526177
0.526177
0.526177
0.526177
0.526177
0.526176
0.526175
0.526173
0.526171
0.526169
0.526166
0.526163
0.526159
0.526155
0.526151
0.526146
0.52614
0.526135
0.526129
0.526123
0.526096
0.5261
0.526105
0.52611
0.526114
0.526118
0.526122
0.526126
0.526129
0.526132
0.526134
0.526136
0.526138
0.52614
0.526141
0.526142
0.526142
0.526143
0.526143
0.526143
0.526143
0.526142
0.526142
0.526141
0.52614
0.526139
0.526139
0.526138
0.526137
0.526136
0.526135
0.526134
0.526134
0.526133
0.526132
0.526132
0.526131
0.526131
0.526131
0.526131
0.526131
0.526131
0.526131
0.526131
0.526132
0.526132
0.526133
0.526134
0.526134
0.526135
0.526136
0.526137
0.526138
0.526139
0.526139
0.52614
0.526141
0.526142
0.526142
0.526143
0.526143
0.526143
0.526143
0.526142
0.526142
0.526141
0.52614
0.526138
0.526136
0.526134
0.526132
0.526129
0.526126
0.526122
0.526118
0.526114
0.52611
0.526105
0.5261
0.526096
0.526068
0.526072
0.526076
0.52608
0.526084
0.526087
0.52609
0.526093
0.526096
0.526098
0.526101
0.526103
0.526104
0.526106
0.526107
0.526108
0.526109
0.526109
0.526109
0.52611
0.52611
0.526109
0.526109
0.526109
0.526108
0.526108
0.526107
0.526107
0.526106
0.526106
0.526105
0.526104
0.526104
0.526103
0.526103
0.526103
0.526102
0.526102
0.526102
0.526102
0.526102
0.526102
0.526102
0.526102
0.526103
0.526103
0.526103
0.526104
0.526104
0.526105
0.526106
0.526106
0.526107
0.526107
0.526108
0.526108
0.526109
0.526109
0.526109
0.52611
0.52611
0.526109
0.526109
0.526109
0.526108
0.526107
0.526106
0.526104
0.526103
0.526101
0.526098
0.526096
0.526093
0.52609
0.526087
0.526084
0.52608
0.526076
0.526072
0.526068
0.526041
0.526044
0.526048
0.526051
0.526054
0.526057
0.526059
0.526062
0.526064
0.526066
0.526068
0.52607
0.526072
0.526073
0.526074
0.526075
0.526076
0.526076
0.526077
0.526077
0.526077
0.526077
0.526077
0.526077
0.526077
0.526077
0.526076
0.526076
0.526075
0.526075
0.526075
0.526074
0.526074
0.526074
0.526073
0.526073
0.526073
0.526073
0.526073
0.526072
0.526072
0.526073
0.526073
0.526073
0.526073
0.526073
0.526074
0.526074
0.526074
0.526075
0.526075
0.526075
0.526076
0.526076
0.526077
0.526077
0.526077
0.526077
0.526077
0.526077
0.526077
0.526077
0.526076
0.526076
0.526075
0.526074
0.526073
0.526072
0.52607
0.526068
0.526066
0.526064
0.526062
0.526059
0.526057
0.526054
0.526051
0.526048
0.526044
0.526041
0.526014
0.526017
0.52602
0.526022
0.526025
0.526027
0.526029
0.526031
0.526033
0.526035
0.526037
0.526038
0.52604
0.526041
0.526042
0.526043
0.526044
0.526044
0.526045
0.526045
0.526045
0.526046
0.526046
0.526046
0.526046
0.526046
0.526045
0.526045
0.526045
0.526045
0.526044
0.526044
0.526044
0.526044
0.526044
0.526043
0.526043
0.526043
0.526043
0.526043
0.526043
0.526043
0.526043
0.526043
0.526043
0.526044
0.526044
0.526044
0.526044
0.526044
0.526045
0.526045
0.526045
0.526045
0.526046
0.526046
0.526046
0.526046
0.526046
0.526045
0.526045
0.526045
0.526044
0.526044
0.526043
0.526042
0.526041
0.52604
0.526038
0.526037
0.526035
0.526033
0.526031
0.526029
0.526027
0.526025
0.526022
0.52602
0.526017
0.526014
0.525987
0.525989
0.525992
0.525994
0.525996
0.525998
0.525999
0.526001
0.526003
0.526005
0.526006
0.526007
0.526009
0.52601
0.526011
0.526012
0.526012
0.526013
0.526013
0.526014
0.526014
0.526014
0.526015
0.526015
0.526015
0.526015
0.526015
0.526015
0.526015
0.526014
0.526014
0.526014
0.526014
0.526014
0.526014
0.526014
0.526014
0.526013
0.526013
0.526013
0.526013
0.526013
0.526013
0.526014
0.526014
0.526014
0.526014
0.526014
0.526014
0.526014
0.526014
0.526015
0.526015
0.526015
0.526015
0.526015
0.526015
0.526015
0.526014
0.526014
0.526014
0.526013
0.526013
0.526012
0.526012
0.526011
0.52601
0.526009
0.526007
0.526006
0.526005
0.526003
0.526001
0.525999
0.525998
0.525996
0.525994
0.525992
0.525989
0.525987
0.52596
0.525962
0.525964
0.525965
0.525967
0.525969
0.52597
0.525972
0.525973
0.525974
0.525976
0.525977
0.525978
0.525979
0.52598
0.525981
0.525981
0.525982
0.525982
0.525983
0.525983
0.525984
0.525984
0.525984
0.525984
0.525984
0.525984
0.525984
0.525984
0.525984
0.525984
0.525984
0.525984
0.525984
0.525984
0.525984
0.525984
0.525984
0.525984
0.525984
0.525984
0.525984
0.525984
0.525984
0.525984
0.525984
0.525984
0.525984
0.525984
0.525984
0.525984
0.525984
0.525984
0.525984
0.525984
0.525984
0.525984
0.525984
0.525984
0.525983
0.525983
0.525982
0.525982
0.525981
0.525981
0.52598
0.525979
0.525978
0.525977
0.525976
0.525974
0.525973
0.525972
0.52597
0.525969
0.525967
0.525965
0.525964
0.525962
0.52596
0.525933
0.525934
0.525936
0.525937
0.525938
0.52594
0.525941
0.525942
0.525943
0.525945
0.525946
0.525947
0.525948
0.525949
0.525949
0.52595
0.525951
0.525951
0.525952
0.525952
0.525953
0.525953
0.525953
0.525953
0.525954
0.525954
0.525954
0.525954
0.525954
0.525954
0.525954
0.525954
0.525954
0.525954
0.525954
0.525954
0.525954
0.525954
0.525954
0.525954
0.525954
0.525954
0.525954
0.525954
0.525954
0.525954
0.525954
0.525954
0.525954
0.525954
0.525954
0.525954
0.525954
0.525954
0.525954
0.525954
0.525953
0.525953
0.525953
0.525953
0.525952
0.525952
0.525951
0.525951
0.52595
0.525949
0.525949
0.525948
0.525947
0.525946
0.525945
0.525943
0.525942
0.525941
0.52594
0.525938
0.525937
0.525936
0.525934
0.525933
0.525906
0.525907
0.525908
0.525909
0.52591
0.525911
0.525912
0.525913
0.525914
0.525915
0.525916
0.525917
0.525918
0.525918
0.525919
0.52592
0.52592
0.525921
0.525921
0.525922
0.525922
0.525923
0.525923
0.525923
0.525923
0.525924
0.525924
0.525924
0.525924
0.525924
0.525924
0.525924
0.525924
0.525924
0.525924
0.525924
0.525924
0.525924
0.525924
0.525924
0.525924
0.525924
0.525924
0.525924
0.525924
0.525924
0.525924
0.525924
0.525924
0.525924
0.525924
0.525924
0.525924
0.525924
0.525924
0.525923
0.525923
0.525923
0.525923
0.525922
0.525922
0.525921
0.525921
0.52592
0.52592
0.525919
0.525918
0.525918
0.525917
0.525916
0.525915
0.525914
0.525913
0.525912
0.525911
0.52591
0.525909
0.525908
0.525907
0.525906
0.525878
0.525879
0.52588
0.525881
0.525882
0.525882
0.525883
0.525884
0.525885
0.525886
0.525887
0.525887
0.525888
0.525889
0.525889
0.52589
0.52589
0.525891
0.525891
0.525892
0.525892
0.525892
0.525893
0.525893
0.525893
0.525893
0.525894
0.525894
0.525894
0.525894
0.525894
0.525894
0.525894
0.525894
0.525894
0.525894
0.525894
0.525894
0.525894
0.525894
0.525894
0.525894
0.525894
0.525894
0.525894
0.525894
0.525894
0.525894
0.525894
0.525894
0.525894
0.525894
0.525894
0.525894
0.525893
0.525893
0.525893
0.525893
0.525892
0.525892
0.525892
0.525891
0.525891
0.52589
0.52589
0.525889
0.525889
0.525888
0.525887
0.525887
0.525886
0.525885
0.525884
0.525883
0.525882
0.525882
0.525881
0.52588
0.525879
0.525878
0.52585
0.525851
0.525852
0.525852
0.525853
0.525854
0.525855
0.525855
0.525856
0.525857
0.525857
0.525858
0.525859
0.525859
0.52586
0.52586
0.525861
0.525861
0.525861
0.525862
0.525862
0.525863
0.525863
0.525863
0.525863
0.525864
0.525864
0.525864
0.525864
0.525864
0.525864
0.525864
0.525864
0.525864
0.525864
0.525865
0.525865
0.525865
0.525865
0.525865
0.525865
0.525865
0.525865
0.525865
0.525865
0.525864
0.525864
0.525864
0.525864
0.525864
0.525864
0.525864
0.525864
0.525864
0.525864
0.525863
0.525863
0.525863
0.525863
0.525862
0.525862
0.525861
0.525861
0.525861
0.52586
0.52586
0.525859
0.525859
0.525858
0.525857
0.525857
0.525856
0.525855
0.525855
0.525854
0.525853
0.525852
0.525852
0.525851
0.52585
0.525822
0.525823
0.525823
0.525824
0.525825
0.525825
0.525826
0.525826
0.525827
0.525828
0.525828
0.525829
0.525829
0.52583
0.52583
0.525831
0.525831
0.525831
0.525832
0.525832
0.525832
0.525833
0.525833
0.525833
0.525833
0.525834
0.525834
0.525834
0.525834
0.525834
0.525834
0.525834
0.525835
0.525835
0.525835
0.525835
0.525835
0.525835
0.525835
0.525835
0.525835
0.525835
0.525835
0.525835
0.525835
0.525835
0.525835
0.525835
0.525834
0.525834
0.525834
0.525834
0.525834
0.525834
0.525834
0.525833
0.525833
0.525833
0.525833
0.525832
0.525832
0.525832
0.525831
0.525831
0.525831
0.52583
0.52583
0.525829
0.525829
0.525828
0.525828
0.525827
0.525826
0.525826
0.525825
0.525825
0.525824
0.525823
0.525823
0.525822
0.525794
0.525795
0.525795
0.525796
0.525796
0.525797
0.525797
0.525798
0.525798
0.525798
0.525799
0.525799
0.5258
0.5258
0.525801
0.525801
0.525801
0.525802
0.525802
0.525802
0.525803
0.525803
0.525803
0.525804
0.525804
0.525804
0.525804
0.525804
0.525804
0.525805
0.525805
0.525805
0.525805
0.525805
0.525805
0.525805
0.525805
0.525805
0.525805
0.525805
0.525805
0.525805
0.525805
0.525805
0.525805
0.525805
0.525805
0.525805
0.525805
0.525805
0.525805
0.525804
0.525804
0.525804
0.525804
0.525804
0.525804
0.525803
0.525803
0.525803
0.525802
0.525802
0.525802
0.525801
0.525801
0.525801
0.5258
0.5258
0.525799
0.525799
0.525798
0.525798
0.525798
0.525797
0.525797
0.525796
0.525796
0.525795
0.525795
0.525794
0.525766
0.525767
0.525767
0.525767
0.525768
0.525768
0.525768
0.525769
0.525769
0.525769
0.52577
0.52577
0.525771
0.525771
0.525771
0.525772
0.525772
0.525772
0.525773
0.525773
0.525773
0.525773
0.525774
0.525774
0.525774
0.525774
0.525774
0.525775
0.525775
0.525775
0.525775
0.525775
0.525775
0.525775
0.525775
0.525775
0.525775
0.525775
0.525775
0.525775
0.525775
0.525775
0.525775
0.525775
0.525775
0.525775
0.525775
0.525775
0.525775
0.525775
0.525775
0.525775
0.525775
0.525774
0.525774
0.525774
0.525774
0.525774
0.525773
0.525773
0.525773
0.525773
0.525772
0.525772
0.525772
0.525771
0.525771
0.525771
0.52577
0.52577
0.525769
0.525769
0.525769
0.525768
0.525768
0.525768
0.525767
0.525767
0.525767
0.525766
0.525738
0.525738
0.525738
0.525739
0.525739
0.525739
0.52574
0.52574
0.52574
0.525741
0.525741
0.525741
0.525741
0.525742
0.525742
0.525742
0.525743
0.525743
0.525743
0.525743
0.525744
0.525744
0.525744
0.525744
0.525745
0.525745
0.525745
0.525745
0.525745
0.525745
0.525745
0.525745
0.525746
0.525746
0.525746
0.525746
0.525746
0.525746
0.525746
0.525746
0.525746
0.525746
0.525746
0.525746
0.525746
0.525746
0.525746
0.525746
0.525745
0.525745
0.525745
0.525745
0.525745
0.525745
0.525745
0.525745
0.525744
0.525744
0.525744
0.525744
0.525743
0.525743
0.525743
0.525743
0.525742
0.525742
0.525742
0.525741
0.525741
0.525741
0.525741
0.52574
0.52574
0.52574
0.525739
0.525739
0.525739
0.525738
0.525738
0.525738
0.52571
0.52571
0.52571
0.52571
0.52571
0.525711
0.525711
0.525711
0.525711
0.525712
0.525712
0.525712
0.525712
0.525713
0.525713
0.525713
0.525713
0.525714
0.525714
0.525714
0.525714
0.525714
0.525715
0.525715
0.525715
0.525715
0.525715
0.525715
0.525716
0.525716
0.525716
0.525716
0.525716
0.525716
0.525716
0.525716
0.525716
0.525716
0.525716
0.525716
0.525716
0.525716
0.525716
0.525716
0.525716
0.525716
0.525716
0.525716
0.525716
0.525716
0.525716
0.525716
0.525715
0.525715
0.525715
0.525715
0.525715
0.525715
0.525714
0.525714
0.525714
0.525714
0.525714
0.525713
0.525713
0.525713
0.525713
0.525712
0.525712
0.525712
0.525712
0.525711
0.525711
0.525711
0.525711
0.52571
0.52571
0.52571
0.52571
0.52571
0.525681
0.525681
0.525681
0.525681
0.525682
0.525682
0.525682
0.525682
0.525682
0.525683
0.525683
0.525683
0.525683
0.525683
0.525684
0.525684
0.525684
0.525684
0.525685
0.525685
0.525685
0.525685
0.525685
0.525685
0.525686
0.525686
0.525686
0.525686
0.525686
0.525686
0.525686
0.525686
0.525686
0.525687
0.525687
0.525687
0.525687
0.525687
0.525687
0.525687
0.525687
0.525687
0.525687
0.525687
0.525687
0.525687
0.525687
0.525686
0.525686
0.525686
0.525686
0.525686
0.525686
0.525686
0.525686
0.525686
0.525685
0.525685
0.525685
0.525685
0.525685
0.525685
0.525684
0.525684
0.525684
0.525684
0.525683
0.525683
0.525683
0.525683
0.525683
0.525682
0.525682
0.525682
0.525682
0.525682
0.525681
0.525681
0.525681
0.525681
0.525652
0.525652
0.525653
0.525653
0.525653
0.525653
0.525653
0.525653
0.525653
0.525654
0.525654
0.525654
0.525654
0.525654
0.525655
0.525655
0.525655
0.525655
0.525655
0.525655
0.525656
0.525656
0.525656
0.525656
0.525656
0.525656
0.525656
0.525657
0.525657
0.525657
0.525657
0.525657
0.525657
0.525657
0.525657
0.525657
0.525657
0.525657
0.525657
0.525657
0.525657
0.525657
0.525657
0.525657
0.525657
0.525657
0.525657
0.525657
0.525657
0.525657
0.525657
0.525657
0.525657
0.525656
0.525656
0.525656
0.525656
0.525656
0.525656
0.525656
0.525655
0.525655
0.525655
0.525655
0.525655
0.525655
0.525654
0.525654
0.525654
0.525654
0.525654
0.525653
0.525653
0.525653
0.525653
0.525653
0.525653
0.525653
0.525652
0.525652
0.525624
0.525624
0.525624
0.525624
0.525624
0.525624
0.525624
0.525624
0.525624
0.525625
0.525625
0.525625
0.525625
0.525625
0.525625
0.525626
0.525626
0.525626
0.525626
0.525626
0.525626
0.525626
0.525627
0.525627
0.525627
0.525627
0.525627
0.525627
0.525627
0.525627
0.525627
0.525627
0.525627
0.525628
0.525628
0.525628
0.525628
0.525628
0.525628
0.525628
0.525628
0.525628
0.525628
0.525628
0.525628
0.525628
0.525628
0.525627
0.525627
0.525627
0.525627
0.525627
0.525627
0.525627
0.525627
0.525627
0.525627
0.525627
0.525626
0.525626
0.525626
0.525626
0.525626
0.525626
0.525626
0.525625
0.525625
0.525625
0.525625
0.525625
0.525625
0.525624
0.525624
0.525624
0.525624
0.525624
0.525624
0.525624
0.525624
0.525624
0.525595
0.525595
0.525595
0.525595
0.525595
0.525595
0.525595
0.525595
0.525595
0.525596
0.525596
0.525596
0.525596
0.525596
0.525596
0.525596
0.525596
0.525597
0.525597
0.525597
0.525597
0.525597
0.525597
0.525597
0.525597
0.525598
0.525598
0.525598
0.525598
0.525598
0.525598
0.525598
0.525598
0.525598
0.525598
0.525598
0.525598
0.525598
0.525598
0.525598
0.525598
0.525598
0.525598
0.525598
0.525598
0.525598
0.525598
0.525598
0.525598
0.525598
0.525598
0.525598
0.525598
0.525598
0.525598
0.525597
0.525597
0.525597
0.525597
0.525597
0.525597
0.525597
0.525597
0.525596
0.525596
0.525596
0.525596
0.525596
0.525596
0.525596
0.525596
0.525595
0.525595
0.525595
0.525595
0.525595
0.525595
0.525595
0.525595
0.525595
0.525566
0.525566
0.525566
0.525566
0.525566
0.525566
0.525566
0.525566
0.525566
0.525567
0.525567
0.525567
0.525567
0.525567
0.525567
0.525567
0.525567
0.525567
0.525567
0.525568
0.525568
0.525568
0.525568
0.525568
0.525568
0.525568
0.525568
0.525568
0.525568
0.525568
0.525569
0.525569
0.525569
0.525569
0.525569
0.525569
0.525569
0.525569
0.525569
0.525569
0.525569
0.525569
0.525569
0.525569
0.525569
0.525569
0.525569
0.525569
0.525569
0.525569
0.525568
0.525568
0.525568
0.525568
0.525568
0.525568
0.525568
0.525568
0.525568
0.525568
0.525568
0.525567
0.525567
0.525567
0.525567
0.525567
0.525567
0.525567
0.525567
0.525567
0.525567
0.525566
0.525566
0.525566
0.525566
0.525566
0.525566
0.525566
0.525566
0.525566
0.525537
0.525537
0.525537
0.525537
0.525537
0.525537
0.525537
0.525537
0.525537
0.525537
0.525538
0.525538
0.525538
0.525538
0.525538
0.525538
0.525538
0.525538
0.525538
0.525538
0.525538
0.525539
0.525539
0.525539
0.525539
0.525539
0.525539
0.525539
0.525539
0.525539
0.525539
0.525539
0.525539
0.525539
0.525539
0.525539
0.525539
0.525539
0.525539
0.525539
0.525539
0.525539
0.525539
0.525539
0.525539
0.525539
0.525539
0.525539
0.525539
0.525539
0.525539
0.525539
0.525539
0.525539
0.525539
0.525539
0.525539
0.525539
0.525539
0.525538
0.525538
0.525538
0.525538
0.525538
0.525538
0.525538
0.525538
0.525538
0.525538
0.525538
0.525537
0.525537
0.525537
0.525537
0.525537
0.525537
0.525537
0.525537
0.525537
0.525537
0.525508
0.525508
0.525508
0.525508
0.525508
0.525508
0.525508
0.525508
0.525508
0.525508
0.525508
0.525509
0.525509
0.525509
0.525509
0.525509
0.525509
0.525509
0.525509
0.525509
0.525509
0.525509
0.525509
0.525509
0.525509
0.52551
0.52551
0.52551
0.52551
0.52551
0.52551
0.52551
0.52551
0.52551
0.52551
0.52551
0.52551
0.52551
0.52551
0.52551
0.52551
0.52551
0.52551
0.52551
0.52551
0.52551
0.52551
0.52551
0.52551
0.52551
0.52551
0.52551
0.52551
0.52551
0.52551
0.525509
0.525509
0.525509
0.525509
0.525509
0.525509
0.525509
0.525509
0.525509
0.525509
0.525509
0.525509
0.525509
0.525509
0.525508
0.525508
0.525508
0.525508
0.525508
0.525508
0.525508
0.525508
0.525508
0.525508
0.525508
0.525479
0.525479
0.525479
0.525479
0.525479
0.525479
0.525479
0.525479
0.525479