/*--------------------------------*- C++ -*----------------------------------*\
  =========                 |
  \\      /  F ield         | OpenFOAM: The Open Source CFD Toolbox
   \\    /   O peration     | Website:  https://openfoam.org
    \\  /    A nd           | Version:  11
     \\/     M anipulation  |
\*---------------------------------------------------------------------------*/
FoamFile
{
    format      ascii;
    class       volScalarField;
    location    "100";
    object      C;
}
// * * * * * * * * * * * * * * * * * * * * * * * * * * * * * * * * * * * * * //

dimensions      [0 0 0 1 0 0 0];

internalField   nonuniform List<scalar> 
427520
(
5.14734e-275
4.34936e-275
3.35409e-275
2.43331e-275
1.69001e-275
1.13733e-275
7.48066e-276
4.83697e-276
3.08576e-276
1.9464e-276
1.21541e-276
7.5184e-277
4.60904e-277
2.80063e-277
1.68689e-277
1.00713e-277
5.95937e-278
3.49421e-278
2.02969e-278
1.16764e-278
6.65027e-279
3.74838e-279
2.08991e-279
1.15206e-279
6.27544e-280
3.37577e-280
1.79214e-280
9.3827e-281
4.84062e-281
2.45879e-281
1.22856e-281
6.03246e-282
2.90779e-282
1.37439e-282
6.36233e-283
2.88089e-283
1.27424e-283
5.49746e-284
2.3097e-284
9.42966e-285
3.72571e-285
1.43936e-285
5.45344e-286
2.03044e-286
7.43955e-287
2.68536e-287
9.55663e-288
3.3553e-288
1.16278e-288
3.97901e-289
1.34496e-289
4.49172e-290
1.48243e-290
4.83578e-291
1.55935e-291
4.97099e-292
1.5667e-292
4.88177e-293
1.50387e-293
4.57993e-294
1.37874e-294
4.1022e-295
1.20609e-295
3.50326e-296
1.00498e-296
2.84638e-297
7.95702e-298
2.19631e-298
6.01418e-299
1.6846e-299
5.64543e-300
3.39624e-300
3.9305e-300
5.78129e-300
8.80224e-300
1.3218e-299
1.9271e-299
2.69211e-299
3.54047e-299
4.25246e-299
4.33072e-274
3.04614e-274
2.11494e-274
1.45516e-274
9.89712e-275
6.64341e-275
4.3979e-275
2.8715e-275
1.85033e-275
1.17765e-275
7.40921e-276
4.61119e-276
2.84036e-276
1.73228e-276
1.04628e-276
6.25891e-277
3.70826e-277
2.17578e-277
1.26401e-277
7.26877e-278
4.13627e-278
2.32821e-278
1.29572e-278
7.12612e-279
3.87085e-279
2.0754e-279
1.09759e-279
5.7213e-280
2.93707e-280
1.48358e-280
7.36654e-281
3.59188e-281
1.71788e-281
8.04913e-282
3.68994e-282
1.6527e-282
7.22131e-283
3.0731e-283
1.27138e-283
5.10028e-284
1.97145e-284
7.47606e-285
2.78618e-285
1.02179e-285
3.69116e-286
1.31447e-286
4.61736e-287
1.60069e-287
5.47854e-288
1.85188e-288
6.18404e-289
2.04049e-289
6.65397e-290
2.14471e-290
6.83349e-291
2.15243e-291
6.70261e-292
2.06341e-292
6.27963e-293
1.88912e-293
5.61703e-294
1.65049e-294
4.79166e-295
1.37413e-295
3.89146e-296
1.088e-296
3.00288e-297
8.19154e-298
2.22831e-298
6.37143e-299
2.42056e-299
1.82481e-299
2.34797e-299
3.50622e-299
5.32421e-299
8.01663e-299
1.19278e-298
1.75544e-298
2.56116e-298
3.68359e-298
2.45634e-273
1.62981e-273
1.0382e-273
6.67382e-274
4.33122e-274
2.82342e-274
1.83974e-274
1.19382e-274
7.69523e-275
4.91931e-275
3.11582e-275
1.95433e-275
1.21357e-275
7.45972e-276
4.53876e-276
2.73325e-276
1.62895e-276
9.6065e-277
5.60484e-277
3.2344e-277
1.84552e-277
1.04082e-277
5.79927e-278
3.19076e-278
1.73258e-278
9.27889e-279
4.89777e-279
2.54602e-279
1.30233e-279
6.5488e-280
3.23404e-280
1.5667e-280
7.43618e-281
3.45354e-281
1.56712e-281
6.93714e-282
2.99062e-282
1.25324e-282
5.09417e-283
2.00236e-283
7.5456e-284
2.79728e-284
1.02114e-284
3.67335e-285
1.30299e-285
4.55974e-286
1.57487e-286
5.37042e-287
1.80869e-287
6.01754e-288
1.97821e-288
6.42688e-289
2.0638e-289
6.55135e-290
2.05602e-290
6.37946e-291
1.95712e-291
5.93655e-292
1.78042e-292
5.2792e-293
1.54753e-293
4.48436e-294
1.28443e-294
3.63599e-295
1.01722e-295
2.81258e-296
7.68969e-297
2.08484e-297
5.69597e-298
1.70905e-298
7.70485e-299
7.09364e-299
9.80395e-299
1.49286e-298
2.30733e-298
3.57739e-298
5.57663e-298
8.7799e-298
1.39442e-297
2.12107e-297
1.08257e-272
7.2685e-273
4.46698e-273
2.73288e-273
1.69274e-273
1.06165e-273
6.71682e-274
4.26877e-274
2.71509e-274
1.7231e-274
1.08862e-274
6.83482e-275
4.25896e-275
2.63142e-275
1.6109e-275
9.76545e-276
5.85952e-276
3.47852e-276
2.04231e-276
1.18541e-276
6.79918e-277
3.85204e-277
2.15454e-277
1.18908e-277
6.47146e-278
3.47085e-278
1.83312e-278
9.52616e-279
4.86656e-279
2.44161e-279
1.20174e-279
5.79562e-280
2.73514e-280
1.2613e-280
5.67455e-281
2.48635e-281
1.05896e-281
4.3749e-282
1.74888e-282
6.7404e-283
2.47778e-283
8.97799e-284
3.20805e-284
1.1309e-284
3.93441e-285
1.35127e-285
4.58277e-286
1.53514e-286
5.08042e-287
1.66137e-287
5.36947e-288
1.71539e-288
5.41782e-289
1.69189e-289
5.22462e-290
1.59556e-290
4.8193e-291
1.43978e-291
4.25481e-292
1.24381e-292
3.5971e-293
1.02921e-293
2.91384e-294
8.16416e-295
2.2645e-295
6.22151e-296
1.69545e-296
4.60706e-297
1.2813e-297
4.14327e-298
2.25162e-298
2.42125e-298
3.53433e-298
5.53462e-298
8.81843e-298
1.42096e-297
2.31986e-297
3.83418e-297
6.30153e-297
9.45529e-297
4.05112e-272
2.80281e-272
1.71812e-272
1.02488e-272
6.13651e-273
3.7177e-273
2.27906e-273
1.41013e-273
8.77794e-274
5.48042e-274
3.42235e-274
2.1326e-274
1.32348e-274
8.16679e-275
5.00415e-275
3.04142e-275
1.83182e-275
1.09245e-275
6.44642e-276
3.76139e-276
2.16877e-276
1.23494e-276
6.94004e-277
3.84662e-277
2.10132e-277
1.1305e-277
5.98503e-278
3.11525e-278
1.59268e-278
7.98936e-279
3.92771e-279
1.88997e-279
8.88878e-280
4.07967e-280
1.82412e-280
7.93051e-281
3.34541e-281
1.36605e-281
5.38466e-282
2.04047e-282
7.33968e-283
2.6055e-283
9.12969e-284
3.15834e-284
1.0789e-284
3.64e-285
1.21311e-285
3.9945e-286
1.29975e-286
4.17999e-287
1.32887e-287
4.1769e-288
1.29827e-288
3.99108e-289
1.21366e-289
3.6514e-290
1.08705e-290
3.20288e-291
9.34159e-292
2.69764e-292
7.7151e-293
2.18592e-293
6.13825e-294
1.70928e-294
4.72364e-295
1.29705e-295
3.54751e-296
9.74425e-297
2.7928e-297
9.90862e-298
6.40925e-298
7.72387e-298
1.17918e-297
1.90399e-297
3.13206e-297
5.223e-297
8.81506e-297
1.49258e-296
2.45577e-296
3.57124e-296
1.3512e-271
9.64622e-272
5.99505e-272
3.55082e-272
2.08376e-272
1.2298e-272
7.33235e-273
4.41681e-273
2.68338e-273
1.64036e-273
1.00648e-273
6.18388e-274
3.79639e-274
2.32436e-274
1.41686e-274
8.58611e-275
5.16587e-275
3.08221e-275
1.82179e-275
1.0657e-275
6.16426e-276
3.52263e-276
1.98713e-276
1.10559e-276
6.0618e-277
3.27237e-277
1.73767e-277
9.06753e-278
4.64474e-278
2.33282e-278
1.14736e-278
5.51845e-279
2.59163e-279
1.18641e-279
5.28446e-280
2.28544e-280
9.57511e-281
3.8761e-281
1.51145e-281
5.65154e-282
1.99769e-282
6.97302e-283
2.40365e-283
8.18309e-284
2.75175e-284
9.14113e-285
3.00025e-285
9.73086e-286
3.11929e-286
9.88451e-287
3.09694e-287
9.59574e-288
2.94096e-288
8.91799e-289
2.67619e-289
7.94972e-290
2.3383e-290
6.81237e-291
1.96656e-291
5.62743e-292
1.59708e-292
4.49805e-293
1.25817e-293
3.49865e-294
9.68435e-295
2.67346e-295
7.38728e-296
2.06662e-296
6.15966e-297
2.41012e-297
1.80137e-297
2.35561e-297
3.73272e-297
6.20259e-297
1.04904e-296
1.79485e-296
3.08822e-296
5.26056e-296
8.527e-296
1.20062e-295
4.13906e-271
3.03847e-271
1.92665e-271
1.1458e-271
6.66272e-272
3.86352e-272
2.25305e-272
1.32511e-272
7.86112e-273
4.6984e-273
2.82418e-273
1.70396e-273
1.0299e-273
6.22411e-274
3.7543e-274
2.25651e-274
1.3494e-274
8.01732e-275
4.72654e-275
2.76157e-275
1.59726e-275
9.13538e-276
5.16124e-276
2.87746e-276
1.5814e-276
8.55848e-277
4.55618e-277
2.38322e-277
1.22339e-277
6.15525e-278
3.03119e-278
1.45886e-278
6.85072e-279
3.13329e-279
1.39297e-279
6.00618e-280
2.50553e-280
1.0084e-280
3.90264e-281
1.44528e-281
5.04334e-282
1.73812e-282
5.91631e-283
1.98909e-283
6.60589e-284
2.1674e-284
7.02658e-285
2.25124e-285
7.12955e-286
2.23233e-286
6.91227e-287
2.1172e-287
6.41671e-288
1.9249e-288
5.71744e-289
1.68214e-289
4.9043e-290
1.41762e-290
4.06494e-291
1.15704e-291
3.27172e-292
9.19919e-293
2.57494e-293
7.18538e-294
2.00261e-294
5.58892e-295
1.56933e-295
4.49811e-296
1.40083e-296
6.00024e-297
5.0015e-297
6.92844e-297
1.13184e-296
1.92763e-296
3.33213e-296
5.79884e-296
1.00609e-295
1.70519e-295
2.70662e-295
3.70358e-295
1.18748e-270
8.92518e-271
5.78084e-271
3.47258e-271
2.01609e-271
1.15681e-271
6.63548e-272
3.82519e-272
2.22056e-272
1.29829e-272
7.63874e-273
4.51688e-273
2.68008e-273
1.59305e-273
9.47035e-274
5.62149e-274
3.32664e-274
1.95965e-274
1.14749e-274
6.66998e-275
3.84354e-275
2.19291e-275
1.23724e-275
6.89455e-276
3.79008e-276
2.05283e-276
1.09415e-276
5.73149e-277
2.94673e-277
1.48485e-277
7.32215e-278
3.52782e-278
1.65777e-278
7.58323e-279
3.36962e-279
1.45106e-279
6.03994e-280
2.42291e-280
9.33436e-281
3.43578e-281
1.18887e-281
4.06218e-282
1.37065e-282
4.5675e-283
1.50338e-283
4.88841e-284
1.57058e-284
4.98701e-285
1.56538e-285
4.8587e-286
1.49168e-286
4.53146e-287
1.36261e-287
4.05754e-288
1.19705e-288
3.50065e-289
1.01538e-289
2.92311e-290
8.35866e-291
2.37625e-291
6.72318e-292
1.89554e-292
5.33369e-293
1.50062e-293
4.2314e-294
1.19967e-294
3.43958e-295
1.0143e-295
3.30177e-296
1.52339e-296
1.36866e-296
1.97251e-296
3.30152e-296
5.73592e-296
1.00752e-295
1.77076e-295
3.0747e-295
5.155e-295
8.0047e-295
1.06925e-294
3.2337e-270
2.47864e-270
1.63814e-270
9.96566e-271
5.80427e-271
3.313e-271
1.87823e-271
1.06538e-271
6.06837e-272
3.47605e-272
2.00273e-272
1.15994e-272
6.74661e-273
3.93572e-273
2.29958e-273
1.34378e-273
7.84195e-274
4.56348e-274
2.64434e-274
1.52357e-274
8.71613e-275
4.94422e-275
2.77711e-275
1.54247e-275
8.4602e-276
4.57602e-276
2.43744e-276
1.27674e-276
6.56665e-277
3.31124e-277
1.6343e-277
7.8815e-278
3.70686e-278
1.69683e-278
7.54291e-279
3.24816e-279
1.35129e-279
5.41416e-280
2.08166e-280
7.63946e-281
2.63198e-281
8.95047e-282
3.00478e-282
9.95992e-283
3.26031e-283
1.05419e-283
3.36784e-284
1.06336e-284
3.31925e-285
1.02469e-285
3.12973e-286
9.46174e-287
2.83267e-287
8.40259e-288
2.47106e-288
7.20933e-289
2.08822e-289
6.0104e-290
1.72069e-290
4.90535e-291
1.3944e-291
3.95854e-292
1.12442e-292
3.20299e-293
9.17551e-294
2.65329e-294
7.79559e-295
2.37071e-295
8.04275e-296
3.91871e-296
3.68431e-296
5.44717e-296
9.28916e-296
1.63899e-295
2.91085e-295
5.13941e-295
8.88929e-295
1.47063e-294
2.23671e-294
2.92849e-294
8.43893e-270
6.57493e-270
4.4255e-270
2.72846e-270
1.59854e-270
9.11012e-271
5.12425e-271
2.86975e-271
1.60824e-271
9.0428e-272
5.10738e-272
2.89818e-272
1.65161e-272
9.44501e-273
5.41456e-273
3.10797e-273
1.78396e-273
1.02261e-273
5.84588e-274
3.3281e-274
1.88423e-274
1.05936e-274
5.90606e-275
3.26038e-275
1.77959e-275
9.5897e-276
5.09409e-276
2.66335e-276
1.36833e-276
6.89649e-277
3.40388e-277
1.64217e-277
7.72854e-278
3.54062e-278
1.57525e-278
6.78893e-279
2.82619e-279
1.13286e-279
4.35619e-280
1.59822e-280
5.50203e-281
1.86864e-281
6.26251e-282
2.0716e-282
6.76585e-283
2.18239e-283
6.95477e-284
2.19046e-284
6.82134e-285
2.10123e-285
6.4056e-286
1.93357e-286
5.7827e-287
1.71457e-287
5.0437e-288
1.47322e-288
4.27669e-289
1.23515e-289
3.55323e-290
1.01955e-290
2.92258e-291
8.38495e-292
2.41302e-292
6.98357e-293
2.03907e-293
6.03168e-294
1.8203e-294
5.71329e-295
2.01053e-295
1.01493e-295
9.74761e-296
1.46175e-295
2.52709e-295
4.51057e-295
8.06792e-295
1.42575e-294
2.44998e-294
3.9972e-294
5.96661e-294
7.68306e-294
2.12582e-269
1.67898e-269
1.14852e-269
7.17378e-270
4.23355e-270
2.41482e-270
1.3515e-270
7.49408e-271
4.14235e-271
2.29085e-271
1.27013e-271
7.06669e-272
3.94631e-272
2.21131e-272
1.24258e-272
6.99595e-273
3.94248e-273
2.22127e-273
1.2497e-273
7.01168e-274
3.91794e-274
2.17723e-274
1.20153e-274
6.57507e-275
3.56241e-275
1.90804e-275
1.00862e-275
5.25351e-276
2.69157e-276
1.35401e-276
6.67549e-277
3.21911e-277
1.51519e-277
6.94555e-278
3.09314e-278
1.33475e-278
5.56487e-279
2.23438e-279
8.6075e-280
3.16409e-280
1.09176e-280
3.71419e-281
1.2463e-281
4.12631e-282
1.3485e-282
4.35177e-283
1.38739e-283
4.37163e-284
1.36214e-284
4.19918e-285
1.28152e-285
3.87421e-286
1.16101e-286
3.45163e-287
1.01886e-287
2.989e-288
8.72404e-289
2.5364e-289
7.35566e-290
2.13113e-290
6.17967e-291
1.7972e-291
5.25492e-292
1.54924e-292
4.62128e-293
1.40097e-293
4.34781e-294
1.40786e-294
5.11318e-295
2.63265e-295
2.53472e-295
3.81911e-295
6.66393e-295
1.19929e-294
2.15406e-294
3.80089e-294
6.48062e-294
1.04316e-293
1.53158e-293
1.945e-293
5.19842e-269
4.15286e-269
2.88122e-269
1.82166e-269
1.08338e-269
6.19425e-270
3.45656e-270
1.90203e-270
1.03922e-270
5.66324e-271
3.08681e-271
1.6856e-271
9.2288e-272
5.06739e-272
2.7899e-272
1.53938e-272
8.50633e-273
4.7032e-273
2.59929e-273
1.43427e-273
7.89195e-274
4.32458e-274
2.35669e-274
1.27533e-274
6.84293e-275
3.6347e-275
1.908e-275
9.88152e-276
5.03993e-276
2.52678e-276
1.2428e-276
5.98445e-277
2.81509e-277
1.29061e-277
5.7524e-278
2.48588e-278
1.03851e-278
4.18054e-279
1.6155e-279
5.96075e-280
2.06661e-280
7.06032e-281
2.37799e-281
7.89998e-282
2.58993e-282
8.38334e-283
2.68066e-283
8.47236e-284
2.64827e-284
8.19203e-285
2.50949e-285
7.61844e-286
2.29395e-286
6.85684e-287
2.03661e-287
6.01738e-288
1.77071e-288
5.19656e-289
1.52329e-289
4.46784e-290
1.3138e-290
3.88205e-291
1.1557e-291
3.47709e-292
1.0611e-292
3.29966e-293
1.0532e-293
3.5142e-294
1.31136e-294
6.80938e-295
6.48148e-295
9.73497e-295
1.7078e-294
3.09061e-294
5.56219e-294
9.78547e-294
1.65481e-293
2.63045e-293
3.80669e-293
4.77838e-293
1.23962e-268
9.99847e-269
7.02249e-269
4.48946e-269
2.69052e-269
1.54325e-269
8.59891e-270
4.70385e-270
2.54503e-270
1.36897e-270
7.34613e-271
3.94149e-271
2.11734e-271
1.13963e-271
6.1472e-272
3.32266e-272
1.79894e-272
9.7501e-273
5.28592e-273
2.86382e-273
1.54889e-273
8.35278e-274
4.48556e-274
2.39535e-274
1.27012e-274
6.67658e-275
3.47353e-275
1.78539e-275
9.04982e-276
4.51492e-276
2.21248e-276
1.06268e-276
4.99156e-277
2.2874e-277
1.02003e-277
4.41424e-278
1.84835e-278
7.46417e-279
2.89625e-279
1.07412e-279
3.74939e-280
1.28898e-280
4.36686e-281
1.45877e-281
4.80796e-282
1.56441e-282
5.0284e-283
1.59765e-283
5.02112e-284
1.56209e-284
4.81428e-285
1.4711e-285
4.46101e-286
1.3438e-286
4.02546e-287
1.20061e-287
3.56998e-288
1.05988e-288
3.14702e-289
9.36287e-290
2.79711e-290
8.41114e-291
2.55299e-291
7.8466e-292
2.45123e-292
7.81948e-293
2.5654e-293
8.80618e-294
3.36433e-294
1.74952e-294
1.63087e-294
2.42606e-294
4.26461e-294
7.74402e-294
1.39435e-293
2.44379e-293
4.09934e-293
6.44224e-293
9.20694e-293
1.14447e-292
2.89334e-268
2.35267e-268
1.67004e-268
1.07831e-268
6.50954e-269
3.74721e-269
2.08686e-269
1.13637e-269
6.09771e-270
3.24238e-270
1.7153e-270
9.05314e-271
4.7758e-271
2.5211e-271
1.33265e-271
7.05563e-272
3.7413e-272
1.98628e-272
1.05528e-272
5.6066e-273
2.97619e-273
1.57693e-273
8.33025e-274
4.38167e-274
2.29165e-274
1.18993e-274
6.12416e-275
3.11862e-275
1.56841e-275
7.77475e-276
3.79086e-276
1.81411e-276
8.50079e-277
3.89103e-277
1.7352e-277
7.51817e-278
3.15546e-278
1.27878e-278
4.98563e-279
1.86044e-279
6.54848e-280
2.26908e-280
7.74544e-281
2.60631e-281
8.65143e-282
2.83489e-282
9.17654e-283
2.93655e-283
9.2971e-284
2.91449e-284
9.05442e-285
2.79025e-285
8.53775e-286
2.59678e-286
7.86018e-287
2.37083e-287
7.13614e-288
2.14691e-288
6.46725e-289
1.95455e-289
5.93966e-290
1.81954e-290
5.6349e-291
1.76994e-291
5.65999e-292
1.85127e-292
6.23591e-293
2.1981e-293
8.5745e-294
4.44959e-294
4.04015e-294
5.923e-294
1.04033e-293
1.89234e-293
3.40532e-293
5.94349e-293
9.89368e-293
1.53902e-292
2.17581e-292
2.68246e-292
6.63063e-268
5.42864e-268
3.88891e-268
2.53318e-268
1.53959e-268
8.8953e-269
4.95444e-269
2.68834e-269
1.43243e-269
7.53939e-270
3.93713e-270
2.0464e-270
1.06112e-270
5.4978e-271
2.84915e-271
1.47779e-271
7.67356e-272
3.98902e-272
2.07547e-272
1.08032e-272
5.62218e-273
2.92294e-273
1.51664e-273
7.84509e-274
4.0403e-274
2.06876e-274
1.0515e-274
5.29616e-275
2.63858e-275
1.29772e-275
6.28757e-276
2.99441e-276
1.39845e-276
6.38866e-277
2.8475e-277
1.23481e-277
5.1943e-278
2.1128e-278
8.28019e-279
3.11119e-279
1.10549e-279
3.86567e-280
1.33128e-280
4.51872e-281
1.51286e-281
4.99979e-282
1.63239e-282
5.26945e-283
1.68325e-283
5.32553e-284
1.67039e-284
5.19941e-285
1.60783e-285
4.94524e-286
1.51476e-286
4.62714e-287
1.41174e-287
4.30925e-288
1.31842e-288
4.05145e-289
1.25334e-289
3.9134e-290
1.23686e-290
3.97003e-291
1.29899e-291
4.35238e-292
1.50316e-292
5.43066e-293
2.15875e-293
1.11672e-293
9.8564e-294
1.41924e-293
2.48526e-293
4.52242e-293
8.12795e-293
1.41263e-292
2.33485e-292
3.59927e-292
5.04129e-292
6.17203e-292
1.49588e-267
1.23184e-267
8.89418e-268
5.83853e-268
3.57032e-268
2.07021e-268
1.15363e-268
6.24231e-269
3.30613e-269
1.72444e-269
8.89956e-270
4.56055e-270
2.32674e-270
1.18414e-270
6.0199e-271
3.05998e-271
1.55614e-271
7.91963e-272
4.03373e-272
2.05577e-272
1.04796e-272
5.34027e-273
2.71834e-273
1.38089e-273
6.99274e-274
3.52537e-274
1.76684e-274
8.78863e-275
4.33108e-275
2.11048e-275
1.01478e-275
4.80393e-276
2.23375e-276
1.01764e-276
4.53041e-277
1.96539e-277
8.28413e-278
3.38194e-278
1.33258e-278
5.04388e-279
1.8106e-279
6.39493e-280
2.2241e-280
7.62314e-281
2.57709e-281
8.60012e-282
2.83552e-282
9.24484e-283
2.98335e-283
9.53821e-284
3.02432e-284
9.52049e-285
2.97893e-285
9.27623e-286
2.87855e-286
8.91457e-287
2.75957e-287
8.55364e-288
2.65988e-288
8.31553e-289
2.61971e-289
8.33837e-290
2.68927e-290
8.81714e-291
2.94961e-291
1.01125e-291
3.57538e-292
1.32152e-292
5.34523e-293
2.75794e-293
2.3679e-293
3.34307e-293
5.82702e-293
1.05975e-292
1.90145e-292
3.29112e-292
5.40475e-292
8.26563e-292
1.14847e-291
1.39779e-291
3.32963e-267
2.75543e-267
2.00298e-267
1.32376e-267
8.13949e-268
4.73551e-268
2.64072e-268
1.42575e-268
7.51216e-269
3.88687e-269
1.98457e-269
1.00374e-269
5.04366e-270
2.52358e-270
1.25944e-270
6.27723e-271
3.12736e-271
1.55832e-271
7.76866e-272
3.87507e-272
1.93376e-272
9.65105e-273
4.81465e-273
2.39917e-273
1.19306e-273
5.91406e-274
2.91848e-274
1.43161e-274
6.96868e-275
3.35985e-275
1.60119e-275
7.52597e-276
3.4806e-276
1.5799e-276
7.02013e-277
3.04503e-277
1.28559e-277
5.26659e-278
2.08642e-278
7.957e-279
2.88681e-279
1.03044e-279
3.62172e-280
1.25448e-280
4.28586e-281
1.44553e-281
4.81748e-282
1.58793e-282
5.18182e-283
1.67579e-283
5.37661e-284
1.71335e-284
5.42951e-285
1.71322e-285
5.39033e-286
1.69363e-286
5.32272e-287
1.67624e-287
5.3e-288
1.68608e-288
5.40966e-289
1.755e-289
5.77363e-290
1.93232e-290
6.6029e-291
2.31346e-291
8.36059e-292
3.15606e-292
1.29746e-292
6.6869e-293
5.60028e-293
7.75168e-293
1.34362e-292
2.44071e-292
4.37099e-292
7.53622e-292
1.23048e-291
1.86878e-291
2.57875e-291
3.12292e-291
7.32633e-267
6.08827e-267
4.45139e-267
2.95922e-267
1.82843e-267
1.06706e-267
5.95515e-268
3.20948e-268
1.68349e-268
8.64838e-269
4.37306e-269
2.18525e-269
1.08258e-269
5.33037e-270
2.61364e-270
1.27818e-270
6.24155e-271
3.04593e-271
1.48637e-271
7.25541e-272
3.5431e-272
1.73084e-272
8.45591e-273
4.12936e-273
2.01429e-273
9.80576e-274
4.75848e-274
2.29878e-274
1.10379e-274
5.25854e-275
2.4807e-275
1.15631e-275
5.31322e-276
2.40073e-276
1.06387e-276
4.61096e-277
1.94894e-277
8.00923e-278
3.1896e-278
1.22562e-278
4.49463e-279
1.62186e-279
5.76314e-280
2.01835e-280
6.97283e-281
2.37843e-281
8.01771e-282
2.67371e-282
8.82931e-283
2.89037e-283
9.39036e-284
3.0313e-284
9.73508e-285
3.11458e-285
9.9411e-286
3.17041e-286
1.01197e-286
3.23878e-287
1.04138e-287
3.37121e-288
1.10136e-288
3.64046e-289
1.22097e-289
4.16802e-290
1.45331e-290
5.19713e-291
1.91689e-291
7.37872e-292
3.0803e-292
1.58883e-292
1.30342e-292
1.7713e-292
3.05243e-292
5.53634e-292
9.89569e-292
1.70008e-291
2.76162e-291
4.16894e-291
5.71894e-291
6.89643e-291
1.59619e-266
1.33116e-266
9.78102e-267
6.53539e-267
4.05537e-267
2.37329e-267
1.32558e-267
7.13364e-268
3.72726e-268
1.9026e-268
9.53638e-269
4.71296e-269
2.30427e-269
1.11759e-269
5.38884e-270
2.58782e-270
1.23939e-270
5.92635e-271
2.83161e-271
1.35271e-271
6.46342e-272
3.08949e-272
1.47728e-272
7.0646e-273
3.37726e-273
1.61286e-273
7.68753e-274
3.65285e-274
1.72792e-274
8.12361e-275
3.78877e-275
1.74929e-275
7.97734e-276
3.58441e-276
1.58276e-276
6.84945e-277
2.89668e-277
1.19359e-277
4.7767e-278
1.84896e-278
6.85307e-279
2.49999e-279
8.98281e-280
3.18171e-280
1.1119e-280
3.83723e-281
1.30901e-281
4.41847e-282
1.47729e-282
4.89779e-283
1.61205e-283
5.27397e-284
1.71725e-284
5.5727e-285
1.80499e-285
5.84444e-286
1.89498e-286
6.16384e-287
2.01531e-287
6.63752e-288
2.20726e-288
7.43e-289
2.53873e-289
8.83213e-290
3.1391e-290
1.14433e-290
4.30161e-291
1.68605e-291
7.14228e-292
3.69479e-292
2.98414e-292
3.99243e-292
6.84305e-292
1.23919e-291
2.21082e-291
3.78597e-291
6.12233e-291
9.19415e-291
1.2549e-290
1.50784e-290
3.44834e-266
2.88443e-266
2.12839e-266
1.42836e-266
8.89644e-267
5.21931e-267
2.91747e-267
1.56812e-267
8.16537e-268
4.14446e-268
2.06093e-268
1.00829e-268
4.87014e-269
2.32908e-269
1.10546e-269
5.21756e-270
2.45273e-270
1.1499e-270
5.38208e-271
2.51697e-271
1.17683e-271
5.50343e-272
2.57475e-272
1.20511e-272
5.64183e-273
2.64078e-273
1.23501e-273
5.76537e-274
2.6834e-274
1.24339e-274
5.72596e-275
2.61545e-275
1.18237e-275
5.27749e-276
2.31985e-276
1.00155e-276
4.23492e-277
1.74865e-277
7.02896e-278
2.73967e-278
1.02595e-278
3.78301e-279
1.37442e-279
4.92389e-280
1.74087e-280
6.07975e-281
2.09936e-281
7.17476e-282
2.42948e-282
8.16e-283
2.72176e-283
9.02689e-284
2.98073e-284
9.81328e-285
3.22595e-285
1.06057e-285
3.49305e-286
1.15463e-286
3.83801e-287
1.28563e-287
4.34984e-288
1.49025e-288
5.1838e-289
1.83625e-289
6.64559e-290
2.4666e-290
9.43756e-291
3.76188e-291
1.61612e-291
8.4029e-292
6.71904e-292
8.88354e-292
1.51602e-291
2.7415e-291
4.8828e-291
8.33782e-291
1.34304e-290
2.00784e-290
2.7287e-290
3.26872e-290
7.39595e-266
6.20226e-266
4.5931e-266
3.09403e-266
1.93333e-266
1.13671e-266
6.35849e-267
3.41408e-267
1.77244e-267
8.95102e-268
4.41945e-268
2.14239e-268
1.02331e-268
4.8305e-269
2.25912e-269
1.04899e-269
4.84455e-270
2.22861e-270
1.02247e-270
4.68325e-271
2.14331e-271
9.80721e-272
4.48875e-272
2.05561e-272
9.41934e-273
4.31811e-273
1.97962e-273
9.06972e-274
4.14871e-274
1.89233e-274
8.59364e-275
3.8785e-275
1.73602e-275
7.68861e-276
3.36092e-276
1.44622e-276
6.10898e-277
2.52586e-277
1.01914e-277
3.99767e-278
1.51172e-278
5.63216e-279
2.06854e-279
7.49436e-280
2.68059e-280
9.47393e-281
3.31163e-281
1.14605e-281
3.93077e-282
1.33769e-282
4.52225e-283
1.52062e-283
5.09248e-284
1.70097e-284
5.67502e-285
1.89424e-285
6.33635e-286
2.12797e-286
7.1889e-287
2.44815e-287
8.42317e-288
2.93515e-288
1.03861e-288
3.74272e-289
1.37789e-289
5.20134e-290
2.02321e-290
8.19225e-291
3.56762e-291
1.86842e-291
1.48778e-291
1.95286e-291
3.32323e-291
6.00361e-291
1.06774e-290
1.81873e-290
2.91965e-290
4.3481e-290
5.88752e-290
7.03447e-290
1.57651e-265
1.32492e-265
9.84185e-266
6.65108e-266
4.16758e-266
2.455e-266
1.37415e-266
7.37164e-267
3.81699e-267
1.91899e-267
9.41434e-268
4.52593e-268
2.13988e-268
9.98068e-269
4.60422e-269
2.10546e-269
9.56223e-270
4.32023e-270
1.94445e-270
8.72879e-271
3.91218e-271
1.75209e-271
7.84632e-272
3.51532e-272
1.57612e-272
7.07274e-273
3.17617e-273
1.42681e-273
6.40731e-274
2.87345e-274
1.28522e-274
5.72392e-275
2.53348e-275
1.11198e-275
4.82822e-276
2.06852e-276
8.72035e-277
3.60725e-277
1.45981e-277
5.75863e-278
2.19737e-278
8.26718e-279
3.0681e-279
1.12381e-279
4.06571e-280
1.45397e-280
5.14451e-281
1.80271e-281
6.26269e-282
2.15941e-282
7.39888e-283
2.5223e-283
8.56661e-284
2.90276e-284
9.82775e-285
3.32986e-285
1.13099e-285
3.85776e-286
1.32401e-286
4.58165e-287
1.60209e-287
5.6744e-288
2.04098e-288
7.47574e-289
2.79701e-289
1.07272e-289
4.23749e-290
1.74125e-290
7.68436e-291
4.06243e-291
3.24062e-291
4.24453e-291
7.21646e-291
1.30311e-290
2.31491e-290
3.93473e-290
6.29815e-290
9.34873e-290
1.26192e-289
1.50447e-289
3.34285e-265
2.81449e-265
2.09613e-265
1.42045e-265
8.92186e-266
5.26421e-266
2.94821e-266
1.58034e-266
8.16399e-267
4.08815e-267
1.99416e-267
9.51529e-268
4.45738e-268
2.05627e-268
9.36672e-269
4.22287e-269
1.88807e-269
8.38642e-270
3.70641e-270
1.63205e-270
7.16845e-271
3.14394e-271
1.37804e-271
6.04088e-272
2.64991e-272
1.16364e-272
5.11589e-273
2.25164e-273
9.91705e-274
4.36784e-274
1.92176e-274
8.43484e-275
3.68683e-275
1.60158e-275
6.89871e-276
2.93915e-276
1.23524e-276
5.10682e-277
2.07087e-277
8.20807e-278
3.15758e-278
1.19879e-278
4.49288e-279
1.66303e-279
6.08322e-280
2.20064e-280
7.87979e-281
2.79536e-281
9.83483e-282
3.43539e-282
1.19283e-282
4.12203e-283
1.41955e-283
4.87871e-284
1.67578e-284
5.76195e-285
1.9865e-285
6.87932e-286
2.39752e-286
8.42596e-287
2.99263e-287
1.07665e-287
3.93336e-288
1.46319e-288
5.55858e-289
2.16389e-289
8.67228e-290
3.61331e-290
1.61564e-290
8.64131e-291
6.94733e-291
9.1291e-291
1.55402e-290
2.80674e-290
4.98188e-290
8.45283e-290
1.34967e-289
1.99779e-289
2.68957e-289
3.2006e-289
7.05661e-265
5.95042e-265
4.44143e-265
3.01677e-265
1.89871e-265
1.12188e-265
6.28608e-266
3.36724e-266
1.73597e-266
8.66241e-267
4.20395e-267
1.99251e-267
9.25608e-268
4.22755e-268
1.90358e-268
8.47036e-269
3.73242e-269
1.6317e-269
7.08861e-270
3.0647e-270
1.32035e-270
5.67506e-271
2.43605e-271
1.04527e-271
4.48678e-272
1.92783e-272
8.29503e-273
3.57489e-273
1.54301e-273
6.6676e-274
2.88234e-274
1.24514e-274
5.36727e-275
2.3044e-275
9.83344e-276
4.16064e-276
1.74101e-276
7.18528e-277
2.91639e-277
1.16023e-277
4.49492e-278
1.72051e-278
6.50709e-279
2.43246e-279
8.99181e-280
3.28908e-280
1.19141e-280
4.27754e-281
1.52369e-281
5.39051e-282
1.89625e-282
6.64082e-283
2.31834e-283
8.07902e-284
2.81451e-284
9.81716e-285
3.43416e-285
1.20689e-285
4.26903e-286
1.52289e-286
5.49043e-287
2.00503e-287
7.43478e-288
2.80663e-288
1.08172e-288
4.27061e-289
1.73496e-289
7.32433e-290
3.31807e-290
1.79974e-290
1.4672e-290
1.94478e-290
3.32198e-290
6.00522e-290
1.06537e-289
1.805e-289
2.87604e-289
4.24708e-289
5.70497e-289
6.77841e-289
1.48399e-264
1.25298e-264
9.36977e-265
6.37685e-265
4.02047e-265
2.3784e-265
1.33319e-265
7.13713e-266
3.67295e-266
1.82709e-266
8.82704e-267
4.15864e-267
1.91742e-267
8.67877e-268
3.86694e-268
1.70017e-268
7.39196e-269
3.18423e-269
1.36134e-269
5.78521e-270
2.44721e-270
1.03177e-270
4.34074e-271
1.82422e-271
7.66541e-272
3.22329e-272
1.35725e-272
5.72559e-273
2.42039e-273
1.02525e-273
4.34992e-274
1.84716e-274
7.8414e-275
3.32255e-275
1.40251e-275
5.88472e-276
2.44827e-276
1.0073e-276
4.08702e-277
1.62997e-277
6.35171e-278
2.44857e-278
9.33677e-279
3.52214e-279
1.31491e-279
4.86064e-280
1.7803e-280
6.46616e-281
2.33107e-281
8.34948e-282
2.97467e-282
1.05539e-282
3.73364e-283
1.31883e-283
4.65803e-284
1.64755e-284
5.84516e-285
2.08363e-285
7.4766e-286
2.70574e-286
9.89605e-287
3.66595e-287
1.37875e-287
5.27791e-288
2.06216e-288
8.25005e-289
3.39488e-289
1.45125e-289
6.66193e-290
3.67411e-290
3.05594e-290
4.1077e-290
7.05594e-290
1.27752e-289
2.26599e-289
3.83466e-289
6.09937e-289
8.98906e-289
1.20521e-288
1.43011e-288
3.11082e-264
2.62942e-264
1.96937e-264
1.34255e-264
8.47693e-265
5.01981e-265
2.81475e-265
1.50604e-265
7.73828e-266
3.83886e-266
1.84723e-266
8.65648e-267
3.96453e-267
1.77997e-267
7.85581e-268
3.41652e-268
1.46735e-268
6.23571e-269
2.62668e-269
1.0985e-269
4.56776e-270
1.89109e-270
7.80513e-271
3.2153e-271
1.32348e-271
5.44884e-272
2.24575e-272
9.27274e-273
3.83774e-273
1.59251e-273
6.62535e-274
2.76235e-274
1.15328e-274
4.81548e-275
2.0076e-275
8.34013e-276
3.44445e-276
1.41064e-276
5.7131e-277
2.28094e-277
8.92779e-278
3.46193e-278
1.32953e-278
5.05666e-279
1.905e-279
7.1115e-280
2.63215e-280
9.66618e-281
3.52499e-281
1.27772e-281
4.60834e-282
1.65571e-282
5.93322e-283
2.12343e-283
7.60034e-284
2.72474e-284
9.79939e-285
3.54149e-285
1.28842e-285
4.72748e-286
1.753e-286
6.58324e-287
2.50959e-287
9.73503e-288
3.85316e-288
1.56099e-288
6.50188e-289
2.81309e-289
1.30897e-289
7.36188e-290
6.28652e-290
8.61183e-290
1.49047e-289
2.70448e-289
4.79748e-289
8.11125e-289
1.2883e-288
1.89548e-288
2.53735e-288
3.00756e-288
6.50346e-264
5.50209e-264
4.12636e-264
2.81696e-264
1.78085e-264
1.05547e-264
5.91995e-265
3.16597e-265
1.62449e-265
8.03954e-266
3.85496e-266
1.79801e-266
8.18565e-267
3.64863e-267
1.59662e-267
6.87584e-268
2.92044e-268
1.22582e-268
5.09384e-269
2.09902e-269
8.5902e-270
3.49644e-270
1.41732e-270
5.72909e-271
2.31208e-271
9.3264e-272
3.76426e-272
1.52164e-272
6.16525e-273
2.50526e-273
1.0213e-273
4.1767e-274
1.71282e-274
7.03737e-275
2.89304e-275
1.18793e-275
4.8619e-276
1.97861e-276
7.98573e-277
3.18663e-277
1.25081e-277
4.87204e-278
1.88214e-278
7.20949e-279
2.73823e-279
1.03146e-279
3.8551e-280
1.4305e-280
5.27386e-281
1.9335e-281
7.05606e-282
2.566e-282
9.30988e-283
3.37423e-283
1.22333e-283
4.44303e-284
1.61902e-284
5.92886e-285
2.1857e-285
8.12665e-286
3.05339e-286
1.16174e-286
4.48596e-287
1.76225e-287
7.06125e-288
2.89487e-288
1.21976e-288
5.3393e-289
2.51981e-289
1.45014e-289
1.2794e-289
1.79417e-289
3.13381e-289
5.70165e-289
1.01175e-288
1.70943e-288
2.71182e-288
3.98435e-288
5.32655e-288
6.30785e-288
1.35653e-263
1.14853e-263
8.62309e-264
5.89371e-264
3.72983e-264
2.21217e-264
1.24104e-264
6.6342e-265
3.39996e-265
1.6791e-265
8.02646e-266
3.72816e-266
1.68836e-266
7.47737e-267
3.24725e-267
1.38616e-267
5.82893e-268
2.41939e-268
9.93007e-269
4.03693e-269
1.62809e-269
6.52335e-270
2.60034e-270
1.03261e-270
4.09017e-271
1.61804e-271
6.40016e-272
2.53415e-272
1.00543e-272
4.00057e-273
1.59742e-273
6.40306e-274
2.57644e-274
1.0402e-274
4.20996e-275
1.70568e-275
6.90539e-276
2.78741e-276
1.11906e-276
4.45522e-277
1.75059e-277
6.83842e-278
2.65366e-278
1.02246e-278
3.91086e-279
1.48508e-279
5.60017e-280
2.09812e-280
7.81474e-281
2.89598e-281
1.06873e-281
3.93164e-282
1.44347e-282
5.29536e-283
1.94362e-283
7.14769e-284
2.63759e-284
9.78195e-285
3.65221e-285
1.37523e-285
5.23252e-286
2.01579e-286
7.87984e-287
3.13285e-287
1.27005e-287
5.26591e-288
2.24334e-288
9.93257e-289
4.75845e-289
2.81319e-289
2.58067e-289
3.71891e-289
6.56367e-289
1.19786e-288
2.12671e-288
3.59144e-288
5.69187e-288
8.35309e-288
1.11547e-287
1.31996e-287
2.82414e-263
2.39264e-263
1.79803e-263
1.23014e-263
7.7917e-264
4.62403e-264
2.59455e-264
1.38644e-264
7.09787e-265
3.49894e-265
1.66806e-265
7.71974e-266
3.47985e-266
1.53242e-266
6.61015e-267
2.79964e-267
1.16679e-267
4.79448e-268
1.94598e-268
7.81474e-269
3.10991e-269
1.22824e-269
4.82097e-270
1.88317e-270
7.33038e-271
2.84713e-271
1.1048e-271
4.28835e-272
1.66701e-272
6.49672e-273
2.54073e-273
9.97761e-274
3.93605e-274
1.55974e-274
6.20567e-275
2.47655e-275