/*--------------------------------*- C++ -*----------------------------------*\
  =========                 |
  \\      /  F ield         | OpenFOAM: The Open Source CFD Toolbox
   \\    /   O peration     | Website:  https://openfoam.org
    \\  /    A nd           | Version:  11
     \\/     M anipulation  |
\*---------------------------------------------------------------------------*/
FoamFile
{
    format      ascii;
    class       volScalarField;
    location    "20";
    object      C;
}
// * * * * * * * * * * * * * * * * * * * * * * * * * * * * * * * * * * * * * //

dimensions      [0 0 0 1 0 0 0];

internalField   nonuniform List<scalar> 
332800
(
1.58002e-210
1.37116e-210
1.08211e-210
7.94178e-211
5.48985e-211
3.60365e-211
2.25907e-211
1.35813e-211
7.85575e-212
4.38321e-212
2.36418e-212
1.2349e-212
6.25619e-213
3.07812e-213
1.47253e-213
6.85629e-214
3.10991e-214
1.37529e-214
5.9341e-215
2.5001e-215
1.02944e-215
4.14857e-216
1.64055e-216
6.40036e-217
2.49116e-217
9.89135e-218
4.16527e-218
1.95814e-218
1.06648e-218
6.67919e-219
4.60753e-219
3.34806e-219
2.48897e-219
1.86426e-219
1.39666e-219
1.04296e-219
7.74949e-220
5.7236e-220
4.19934e-220
3.0594e-220
2.21279e-220
1.58878e-220
1.13247e-220
8.01494e-221
5.63353e-221
3.93357e-221
2.72928e-221
1.88231e-221
1.29072e-221
8.80166e-222
5.96971e-222
4.02733e-222
2.70225e-222
1.80295e-222
1.19571e-222
7.8775e-223
5.15119e-223
3.34146e-223
2.15808e-223
1.42826e-223
1.10171e-223
1.31115e-223
2.5372e-223
5.97487e-223
1.42818e-222
3.30178e-222
7.32713e-222
1.56182e-221
3.20249e-221
6.32251e-221
1.20197e-220
2.19918e-220
3.86771e-220
6.52596e-220
1.05353e-219
1.62107e-219
2.36463e-219
3.24375e-219
4.13166e-219
4.77685e-219
5.8657e-210
5.2801e-210
4.3861e-210
3.41109e-210
2.507e-210
1.75274e-210
1.1714e-210
7.51225e-211
4.63701e-211
2.76188e-211
1.59074e-211
8.87605e-212
4.80587e-212
2.5286e-212
1.29452e-212
6.45613e-213
3.14011e-213
1.49096e-213
6.91742e-214
3.13879e-214
1.39407e-214
6.06534e-215
2.58715e-215
1.08279e-215
4.451e-216
1.7995e-216
7.17096e-217
2.82748e-217
1.11091e-217
4.40512e-218
1.80137e-218
7.83843e-219
3.75496e-219
2.01934e-219
1.20958e-219
7.84898e-220
5.35464e-220
3.75678e-220
2.67424e-220
1.9164e-220
1.37604e-220
9.86892e-221
7.05305e-221
5.01321e-221
3.53806e-221
2.47552e-221
1.71466e-221
1.17388e-221
7.92869e-222
5.27079e-222
3.43706e-222
2.18738e-222
1.34746e-222
7.91931e-223
4.31856e-223
2.05631e-223
7.32639e-224
1.46767e-224
3.41542e-224
1.75866e-223
5.60622e-223
1.46333e-222
3.46654e-222
7.75041e-222
1.66159e-221
3.43833e-221
6.88536e-221
1.33536e-220
2.50785e-220
4.55749e-220
8.00555e-220
1.35725e-219
2.21683e-219
3.48021e-219
5.23638e-219
7.5235e-219
1.02729e-218
1.32443e-218
1.59724e-218
1.77599e-218
1.2883e-209
1.17339e-209
9.93487e-210
7.91597e-210
5.9838e-210
4.31582e-210
2.98274e-210
1.98188e-210
1.26943e-210
7.85565e-211
4.70565e-211
2.733e-211
1.54127e-211
8.45114e-212
4.51098e-212
2.34658e-212
1.19086e-212
5.90175e-213
2.85888e-213
1.35486e-213
6.28699e-214
2.85889e-214
1.27497e-214
5.58059e-215
2.39921e-215
1.01395e-215
4.21628e-216
1.72731e-216
6.98587e-217
2.79909e-217
1.11831e-217
4.50695e-218
1.868e-218
8.18639e-219
3.9082e-219
2.06758e-219
1.2035e-219
7.51115e-220
4.88272e-220
3.23376e-220
2.15175e-220
1.42681e-220
9.38074e-221
6.09154e-221
3.8913e-221
2.43232e-221
1.47554e-221
8.56657e-222
4.6326e-222
2.18883e-222
7.18455e-223
-1.25073e-223
-5.71825e-223
-7.72085e-223
-8.20427e-223
-7.69787e-223
-6.3556e-223
-3.86719e-223
8.43825e-224
1.031e-222
2.99282e-222
7.06723e-222
1.54093e-221
3.2114e-221
6.47045e-221
1.26517e-220
2.40301e-220
4.43283e-220
7.93627e-220
1.3776e-219
2.31554e-219
3.76324e-219
5.90316e-219
8.91878e-219
1.2945e-218
1.79917e-218
2.38449e-218
2.99649e-218
3.54186e-218
3.88976e-218
2.51359e-209
2.30117e-209
1.96578e-209
1.58534e-209
1.2164e-209
8.92865e-210
6.29521e-210
4.27666e-210
2.80638e-210
1.78242e-210
1.09758e-210
6.56228e-211
3.81442e-211
2.15805e-211
1.18963e-211
6.39607e-212
3.35714e-212
1.72174e-212
8.63528e-213
4.23894e-213
2.03825e-213
9.60752e-214
4.44266e-214
2.01679e-214
8.99401e-215
3.94258e-215
1.69966e-215
7.20865e-216
3.00827e-216
1.23499e-216
4.98374e-217
1.97351e-217
7.64161e-218
2.87296e-218
1.03325e-218
3.43103e-219
9.449e-220
1.08818e-220
-1.33941e-220
-1.763e-220
-1.58914e-220
-1.29209e-220
-1.01453e-220
-7.88101e-221
-6.11141e-221
-4.74457e-221
-3.68935e-221
-2.87242e-221
-2.23809e-221
-1.74443e-221
-1.3597e-221
-1.05956e-221
-8.24995e-222
-6.40716e-222
-4.93611e-222
-3.70796e-222
-2.56506e-222
-1.26409e-222
6.32178e-223
3.96083e-222
1.03424e-221
2.28745e-221
4.73417e-221
9.42448e-221
1.82053e-220
3.42154e-220
6.25936e-220
1.11417e-219
1.92822e-219
3.24122e-219
5.2857e-219
8.35105e-219
1.27621e-218
1.88279e-218
2.67505e-218
3.64912e-218
4.76025e-218
5.90603e-218
6.91557e-218
7.55372e-218
4.70001e-209
4.31328e-209
3.70075e-209
3.00297e-209
2.32252e-209
1.72153e-209
1.228e-209
8.45608e-210
5.63502e-210
3.64112e-210
2.28501e-210
1.3946e-210
8.28749e-211
4.80019e-211
2.71243e-211
1.49657e-211
8.06903e-212
4.2547e-212
2.19565e-212
1.10974e-212
5.49729e-213
2.67089e-213
1.27362e-213
5.96473e-214
2.74527e-214
1.24245e-214
5.53207e-215
2.42415e-215
1.04551e-215
4.43638e-216
1.84981e-216
7.5582e-217
3.00879e-217
1.15289e-217
4.13814e-218
1.29409e-218
2.59886e-219
-7.59935e-220
-1.55523e-219
-1.49492e-219
-1.21023e-219
-9.16111e-220
-6.72948e-220
-4.87684e-220
-3.51514e-220
-2.53047e-220
-1.82332e-220
-1.31653e-220
-9.53179e-221
-6.92221e-221
-5.04326e-221
-3.6859e-221
-2.70072e-221
-1.97963e-221
-1.44172e-221
-1.02109e-221
-6.53819e-222
-2.60125e-222
2.84337e-222
1.19835e-221
2.8826e-221
6.07054e-221
1.20811e-220
2.32266e-220
4.34426e-220
7.92138e-220
1.40852e-219
2.44134e-219
4.12168e-219
6.77174e-219
1.08149e-218
1.67679e-218
2.51987e-218
3.66342e-218
5.13987e-218
6.93799e-218
8.97358e-218
1.10602e-217
1.28904e-217
1.40435e-217
8.63207e-209
7.93124e-209
6.81985e-209
5.55157e-209
4.31183e-209
3.21334e-209
2.30743e-209
1.60172e-209
1.07754e-209
7.03971e-210
4.4737e-210
2.76923e-210
1.67159e-210
9.84917e-211
5.66947e-211
3.19073e-211
1.75691e-211
9.47128e-212
5.00203e-212
2.58961e-212
1.31504e-212
6.55429e-213
3.20819e-213
1.54314e-213
7.29821e-214
3.39578e-214
1.55522e-214
7.01378e-215
3.1154e-215
1.36279e-215
5.86655e-216
2.4808e-216
1.02652e-216
4.12328e-217
1.58075e-217
5.55841e-218
1.59036e-218
1.60218e-219
-2.79981e-219
-3.5662e-219
-3.1541e-219
-2.47907e-219
-1.84947e-219
-1.34479e-219
-9.65198e-220
-6.88365e-220
-4.8962e-220
-3.48068e-220
-2.47624e-220
-1.7644e-220
-1.25976e-220
-9.0141e-221
-6.46014e-221
-4.62514e-221
-3.28019e-221
-2.24347e-221
-1.34579e-221
-3.87323e-222
9.27187e-222
3.09499e-221
6.99481e-221
1.41863e-220
2.7397e-220
5.12883e-220
9.36109e-220
1.66867e-219
2.90561e-219
4.94032e-219
8.19636e-219
1.32569e-218
2.08804e-218
3.19839e-218
4.75678e-218
6.85503e-218
9.54823e-218
1.28131e-217
1.64964e-217
2.02622e-217
2.35591e-217
2.56336e-217
1.57247e-208
1.44566e-208
1.24447e-208
1.01471e-208
7.89889e-209
5.90388e-209
4.25534e-209
2.96766e-209
2.00785e-209
1.32075e-209
8.46119e-210
5.28676e-210
3.22559e-210
1.92363e-210
1.12226e-210
6.40984e-211
3.58646e-211
1.96703e-211
1.05809e-211
5.58522e-212
2.89459e-212
1.47365e-212
7.37372e-213
3.62823e-213
1.75649e-213
8.37069e-214
3.92874e-214
1.8168e-214
8.28046e-215
3.71995e-215
1.64673e-215
7.1759e-216
3.07114e-216
1.2848e-216
5.20356e-217
1.99887e-217
6.92968e-218
1.84062e-218
1.42313e-220
-5.26424e-219
-5.93384e-219
-5.09457e-219
-3.96014e-219
-2.93801e-219
-2.1276e-219
-1.52078e-219
-1.07949e-219
-7.63583e-220
-5.39381e-220
-3.80983e-220
-2.69294e-220
-1.90535e-220
-1.34849e-220
-9.5161e-221
-6.62632e-221
-4.40364e-221
-2.46866e-221
-3.82236e-222
2.48762e-221
7.17697e-221
1.54721e-220
3.04737e-220
5.74982e-220
1.0547e-219
1.88997e-219
3.3132e-219
5.68283e-219
9.53282e-219
1.56281e-218
2.50155e-218
3.90504e-218
5.93662e-218
8.77393e-218
1.25794e-217
1.74496e-217
2.33407e-217
2.99759e-217
3.67521e-217
4.268e-217
4.64083e-217
2.85338e-208
2.62408e-208
2.26018e-208
1.84449e-208
1.43753e-208
1.07617e-208
7.77282e-209
5.43514e-209
3.68959e-209
2.43701e-209
1.5691e-209
9.86323e-210
6.06061e-210
3.64421e-210
2.14619e-210
1.23891e-210
7.01466e-211
3.89779e-211
2.12669e-211
1.13992e-211
6.00522e-212
3.11076e-212
1.58519e-212
7.95003e-213
3.92578e-213
1.90963e-213
9.15446e-214
4.32662e-214
2.01673e-214
9.27291e-215
4.20567e-215
1.88056e-215
8.27965e-216
3.57935e-216
1.51095e-216
6.15895e-217
2.36699e-217
8.08118e-218
1.97755e-218
-2.01101e-219
-8.20466e-219
-8.64459e-219
-7.28465e-219
-5.62141e-219
-4.15499e-219
-3.00077e-219
-2.13924e-219
-1.51393e-219
-1.06713e-219
-7.50731e-220
-5.27742e-220
-3.70872e-220
-2.60342e-220
-1.81847e-220
-1.24796e-220
-8.07837e-221
-4.20569e-221
3.05319e-223
5.89666e-221
1.54336e-220
3.21009e-220
6.18119e-220
1.14567e-219
2.06958e-219
3.65872e-219
6.33735e-219
1.07555e-218
1.78766e-218
2.90757e-218
4.62298e-218
7.17648e-218
1.08601e-217
1.59911e-217
2.28595e-217
3.16367e-217
4.22426e-217
5.41793e-217
6.63636e-217
7.70192e-217
8.3721e-217
5.16789e-208
4.75332e-208
4.09537e-208
3.34365e-208
2.60757e-208
1.95377e-208
1.41276e-208
9.89347e-209
6.729e-209
4.45542e-209
2.87743e-209
1.81554e-209
1.12068e-209
6.77536e-210
4.01587e-210
2.3355e-210
1.33364e-210
7.48197e-211
4.12615e-211
2.23785e-211
1.19416e-211
6.27213e-212
3.24388e-212
1.65265e-212
8.29721e-213
4.10667e-213
2.00457e-213
9.65362e-214
4.58815e-214
2.15264e-214
9.97079e-215
4.55852e-215
2.05562e-215
9.12798e-216
3.97818e-216
1.69068e-216
6.91669e-217
2.649e-217
8.8378e-218
1.91775e-218
-5.24766e-219
-1.17995e-218
-1.17778e-218
-9.75802e-219
-7.47588e-219
-5.50438e-219
-3.96458e-219
-2.81945e-219
-1.99021e-219
-1.3988e-219
-9.80677e-220
-6.86326e-220
-4.79072e-220
-3.32016e-220
-2.25051e-220
-1.42071e-220
-6.81211e-221
1.4031e-221
1.28696e-220
3.14646e-220
6.36875e-220
1.20534e-219
2.20435e-219
3.93743e-219
6.89352e-219
1.18406e-218
1.99511e-218
3.29586e-218
5.33333e-218
8.44436e-218
1.3064e-217
1.9716e-217
2.89691e-217
4.1343e-217
5.71447e-217
7.62292e-217
9.77011e-217
1.19614e-216
1.38775e-216
1.50829e-216
9.35103e-208
8.60155e-208
7.41207e-208
6.05298e-208
4.72206e-208
3.53972e-208
2.56115e-208
1.79505e-208
1.22222e-208
8.10408e-209
5.24334e-209
3.31591e-209
2.05266e-209
1.24534e-209
7.41266e-210
4.33274e-210
2.4888e-210
1.40586e-210
7.81388e-211
4.27541e-211
2.30393e-211
1.22324e-211
6.40136e-212
3.30295e-212
1.68095e-212
8.44065e-213
4.18328e-213
2.047e-213
9.8927e-214
4.72295e-214
2.22782e-214
1.03823e-214
4.77842e-215
2.16985e-215
9.70147e-216
4.25391e-216
1.81541e-216
7.42688e-217
2.81713e-217
9.0488e-218
1.58073e-218
-9.99514e-219
-1.62764e-218
-1.54559e-218
-1.25814e-218
-9.56054e-219
-7.00705e-219
-5.03095e-219
-3.56828e-219
-2.51214e-219
-1.76035e-219
-1.22927e-219
-8.54757e-220
-5.88745e-220
-3.94762e-220
-2.43216e-220
-1.06326e-220
4.81117e-221
2.65482e-220
6.17766e-220
1.22481e-219
2.28806e-219
4.14339e-219
7.34147e-219
1.27664e-218
2.18035e-218
3.6564e-218
6.01664e-218
9.70509e-218
1.53271e-217
2.36644e-217
3.56578e-217
5.23296e-217
7.46137e-217
1.03061e-216
1.37411e-216
1.76053e-216
2.15484e-216
2.49966e-216
2.71662e-216
1.69123e-207
1.55574e-207
1.34071e-207
1.09501e-207
8.54392e-208
6.40623e-208
4.63676e-208
3.25128e-208
2.21511e-208
1.46994e-208
9.52061e-209
6.02913e-209
3.73876e-209
2.27328e-209
1.35681e-209
7.95706e-210
4.58901e-210
2.60455e-210
1.45569e-210
8.0161e-211
4.35133e-211
2.32932e-211
1.23012e-211
6.41105e-212
3.2985e-212
1.6759e-212
8.41113e-213
4.17123e-213
2.04455e-213
9.90736e-214
4.74699e-214
2.24902e-214
1.05341e-214
4.87491e-215
2.22604e-215
1.00043e-215
4.404e-216
1.88171e-216
7.6625e-217
2.85336e-217
8.60325e-218
9.0096e-219
-1.66328e-218
-2.18535e-218
-1.98044e-218
-1.58276e-218
-1.19182e-218
-8.68837e-219
-6.21491e-219
-4.39435e-219
-3.08399e-219
-2.15242e-219
-1.49304e-219
-1.02339e-219
-6.79554e-220
-4.08768e-220
-1.6074e-220
1.23403e-220
5.26877e-220
1.18142e-219
2.3056e-219
4.26549e-219
7.6695e-219
1.35129e-218
2.33907e-218
3.97991e-218
6.65399e-218
1.09226e-217
1.75847e-217
2.77296e-217
4.2764e-217
6.43812e-217
9.44209e-217
1.34564e-216
1.85803e-216
2.47667e-216
3.17258e-216
3.88272e-216
4.50375e-216
4.89461e-216
3.05808e-207
2.81313e-207
2.4244e-207
1.98023e-207
1.54524e-207
1.15877e-207
8.38861e-208
5.88354e-208
4.00985e-208
2.66214e-208
1.72528e-208
1.09345e-208
6.78779e-209
4.13274e-209
2.47086e-209
1.45215e-209
8.39696e-210
4.78111e-210
2.68246e-210
1.48387e-210
8.09745e-211
4.36104e-211
2.31899e-211
1.21796e-211
6.32029e-212
3.24149e-212
1.64355e-212
8.24084e-213
4.08713e-213
2.0055e-213
9.73775e-214
4.67905e-214
2.22474e-214
1.04631e-214
4.8632e-215
2.23008e-215
1.0057e-215
4.43421e-216
1.89032e-216
7.61715e-217
2.74975e-217
7.43957e-218
-1.62651e-219
-2.54149e-218
-2.86817e-218
-2.49109e-218
-1.95467e-218
-1.45767e-218
-1.05632e-218
-7.52343e-219
-5.29915e-219
-3.70226e-219
-2.56505e-219
-1.75139e-219
-1.15252e-219
-6.76547e-220
-2.34153e-220
2.80681e-220
1.01879e-219
2.2192e-219
4.27804e-219
7.85768e-219
1.40573e-218
2.46729e-218
4.25805e-218
7.22788e-218
1.20618e-217
1.97709e-217
3.17946e-217
5.00953e-217
7.72078e-217
1.16183e-216
1.70336e-216
2.42697e-216
3.35054e-216
4.46562e-216
5.71996e-216
7e-216
8.11954e-216
8.82436e-216
5.529e-207
5.08618e-207
4.38344e-207
3.58048e-207
2.7941e-207
2.09544e-207
1.51708e-207
1.06418e-207
7.25417e-208
4.81728e-208
3.12307e-208
1.98026e-208
1.23004e-208
7.49519e-209
4.4859e-209
2.63995e-209
1.52913e-209
8.72507e-210
4.90791e-210
2.72344e-210
1.49172e-210
8.06916e-211
4.31259e-211
2.27819e-211
1.18999e-211
6.14797e-212
3.14259e-212
1.58975e-212
7.96086e-213
3.94709e-213
1.938e-213
9.42393e-214
4.53837e-214
2.16398e-214
1.02101e-214
4.76122e-215
2.18954e-215
9.89013e-216
4.35621e-216
1.84528e-216
7.30261e-217
2.5085e-217
5.55335e-218
-1.6179e-218
-3.63954e-218
-3.67868e-218
-3.07812e-218
-2.37331e-218
-1.7525e-218
-1.26177e-218
-8.94043e-219
-6.26273e-219
-4.33878e-219
-2.95321e-219
-1.92627e-219
-1.10131e-219
-3.22125e-220
6.00142e-220
1.93683e-219
4.11948e-219
7.86362e-219
1.43653e-218
2.56085e-218
4.48332e-218
7.72264e-218
1.30902e-217
2.18211e-217
3.57388e-217
5.74393e-217
9.0462e-217
1.39379e-216
2.09693e-216
3.07387e-216
4.37926e-216
6.04539e-216
8.05704e-216
1.032e-215
1.26295e-215
1.46496e-215
1.59218e-215
9.99597e-207
9.19542e-207
7.925e-207
6.47339e-207
5.05178e-207
3.78872e-207
2.74315e-207
1.92437e-207
1.31191e-207
8.71325e-208
5.64995e-208
3.58345e-208
2.22666e-208
1.35745e-208
8.12958e-209
4.78823e-209
2.77644e-209
1.58636e-209
8.9386e-210
4.97054e-210
2.72951e-210
1.48102e-210
7.94423e-211
4.21455e-211
2.21223e-211
1.14933e-211
5.91196e-212
3.01172e-212
1.51986e-212
7.59967e-213
3.76587e-213
1.84954e-213
9.00325e-214
4.34316e-214
2.07542e-214
9.81583e-215
4.58757e-215
2.11277e-215
9.54028e-216
4.18572e-216
1.7533e-216
6.74773e-217
2.14255e-217
3.00834e-218
-3.42878e-218
-4.93406e-218
-4.6001e-218
-3.72883e-218
-2.82875e-218
-2.06832e-218
-1.47843e-218
-1.04023e-218
-7.21414e-219
-4.89733e-219
-3.16453e-219
-1.75436e-219
-3.97427e-220
1.23992e-219
3.64332e-219
7.58952e-219
1.4369e-218
2.614e-218
4.64828e-218
8.12447e-218
1.39787e-217
2.36754e-217
3.94439e-217
6.45759e-217
1.03758e-216
1.6338e-216
2.51698e-216
3.7865e-216
5.55037e-216
7.90734e-216
1.09158e-215
1.45482e-215
1.86347e-215
2.28054e-215
2.6454e-215
2.87525e-215
1.80716e-206
1.66243e-206
1.43276e-206
1.17033e-206
9.13329e-207
6.8499e-207
4.95967e-207
3.47944e-207
2.37218e-207
1.57564e-207
1.02181e-207
6.48171e-208
4.02839e-208
2.45654e-208
1.47174e-208
8.67275e-209
5.03219e-209
2.87768e-209
1.62325e-209
9.03902e-210
4.97221e-210
2.7036e-210
1.45392e-210
7.73678e-211
4.07563e-211
2.12625e-211
1.09894e-211
5.62866e-212
2.8578e-212
1.43866e-212
7.1823e-213
3.55641e-213
1.74672e-213
8.50879e-214
4.10979e-214
1.96704e-214
9.31852e-215
4.36048e-215
2.00833e-215
9.0477e-216
3.94179e-216
1.62359e-216
5.99925e-217
1.67717e-217
-4.75666e-220
-5.5019e-218
-6.36222e-218
-5.58818e-218
-4.41098e-218
-3.29679e-218
-2.38612e-218
-1.69e-218
-1.17465e-218
-7.95476e-219
-5.08451e-219
-2.71007e-219
-3.7299e-220
2.51191e-219
6.81073e-219
1.39192e-218
2.6163e-218
4.74366e-218
8.42036e-218
1.47023e-217
2.52805e-217
4.27999e-217
7.12888e-217
1.16695e-216
1.87487e-216
2.95213e-216
4.54795e-216
6.84195e-216
1.00294e-215
1.42888e-215
1.97258e-215
2.6291e-215
3.36772e-215
4.12162e-215
4.78122e-215
5.19688e-215
3.26717e-206
3.00551e-206
2.59028e-206
2.11585e-206
1.65122e-206
1.23841e-206
8.96686e-207
6.29079e-207
4.289e-207
2.84894e-207
1.84765e-207
1.17213e-207
7.28567e-208
4.44357e-208
2.66277e-208
1.5696e-208
9.11095e-209
5.2129e-209
2.94254e-209
1.64e-209
9.0316e-210
4.91781e-210
2.64928e-210
1.41277e-210
7.46131e-211
3.90435e-211
2.02509e-211
1.04148e-211
5.31262e-212
2.68861e-212
1.35023e-212
6.7301e-213
3.32972e-213
1.63516e-213
7.96895e-214
3.85248e-214
1.84591e-214
8.75316e-215
4.09718e-215
1.88478e-215
8.45537e-216
3.64657e-216
1.46804e-216
5.12414e-217
1.15237e-217
-3.36192e-218
-7.66999e-218
-7.80889e-218
-6.5613e-218
-5.06504e-218
-3.73222e-218
-2.6689e-218
-1.86184e-218
-1.25768e-218
-7.92803e-219
-3.99859e-219
-1.92584e-221
5.02968e-219
1.26886e-218
2.54628e-218
4.75433e-218
8.59595e-218
1.52387e-217
2.65909e-217
4.57091e-217
7.73759e-217
1.28876e-216
2.10965e-216
3.38962e-216
5.33757e-216
8.22341e-216
1.23721e-215
1.81371e-215
2.58413e-215
3.5676e-215
4.75522e-215
6.09145e-215
7.45544e-215
8.64896e-215
9.4013e-215
5.90677e-206
5.4337e-206
4.68301e-206
3.82528e-206
2.98527e-206
2.23896e-206
1.62115e-206
1.13735e-206
7.75443e-207
5.15093e-207
3.34069e-207
2.1194e-207
1.31744e-207
8.03588e-208
4.81604e-208
2.83937e-208
1.64854e-208
9.43528e-209
5.32824e-209
2.97133e-209
1.63752e-209
8.92477e-210
4.81351e-210
2.57061e-210
1.36005e-210
7.13219e-211
3.7088e-211
1.91318e-211
9.79357e-212
4.97647e-212
2.51079e-212
1.25804e-212
6.26091e-213
3.09496e-213
1.51953e-213
7.40753e-214
3.58334e-214
1.71821e-214
8.15139e-215
3.81403e-215
1.75071e-215
7.80963e-216
3.32595e-216
1.30171e-216
4.21393e-217
6.2625e-218
-6.55109e-218
-9.67166e-218
-9.09125e-218
-7.38815e-218
-5.59319e-218
-4.05717e-218
-2.84647e-218
-1.91707e-218
-1.18518e-218
-5.48109e-219
1.21218e-219
9.99438e-219
2.3599e-218
4.65204e-218
8.63117e-218
1.55667e-217
2.75692e-217
4.80898e-217
8.26585e-217
1.3993e-216
2.33088e-216
3.81603e-216
6.13207e-216
9.65718e-216
1.48801e-215
2.23892e-215
3.28245e-215
4.67711e-215
6.45757e-215
8.60774e-215
1.10272e-214
1.34971e-214
1.56585e-214
1.70214e-214
1.06791e-205
9.82379e-206
8.46659e-206
6.91586e-206
5.39718e-206
4.0479e-206
2.93095e-206
2.05627e-206
1.40197e-206
9.31279e-207
6.03999e-207
3.83197e-207
2.38208e-207
1.45305e-207
8.70897e-208
5.135e-208
2.9818e-208
1.70694e-208
9.64183e-209
5.37869e-209
2.9656e-209
1.61727e-209
8.72937e-210
4.66639e-210
2.47187e-210
1.29822e-210
6.76316e-211
3.49642e-211
1.79448e-211
9.14624e-212
4.63094e-212
2.32984e-212
1.16491e-212
5.78919e-213
2.85955e-213
1.40366e-213
6.84442e-214
3.31273e-214
1.5894e-214
7.54236e-215
3.52695e-215
1.61503e-215
7.16192e-216
3.01065e-216
1.14361e-216
3.39062e-217
1.79491e-218
-9.06778e-218
-1.1127e-217
-9.93904e-218
-7.86993e-218
-5.83991e-218
-4.13479e-218
-2.77324e-218
-1.66316e-218
-6.55786e-219
4.55295e-219
1.97427e-218
4.38537e-218
8.49462e-218
1.56637e-217
2.81862e-217
4.98797e-217
8.69906e-217
1.49531e-216
2.53176e-216
4.21804e-216
6.9069e-216
1.11007e-215
1.74848e-215
2.69447e-215
4.05467e-215
5.94506e-215
8.47171e-215
1.16975e-214
1.55935e-214
1.99776e-214
2.44536e-214
2.83711e-214
3.08418e-214
1.93075e-205
1.77611e-205
1.53073e-205
1.25036e-205
9.7579e-206
7.31846e-206
5.29905e-206
3.71766e-206
2.53472e-206
1.68373e-206
1.09202e-206
6.92823e-207
4.30689e-207
2.62723e-207
1.57471e-207
9.28535e-208
5.39225e-208
3.08715e-208
1.74408e-208
9.7314e-209
5.36703e-209
2.92799e-209
1.58119e-209
8.45786e-210
4.48395e-210
2.35736e-210
1.22965e-210
6.36693e-211
3.27387e-211
1.67242e-211
8.49039e-212
4.2849e-212
2.15025e-212
1.07311e-212
5.32655e-213
2.62948e-213
1.29068e-213
6.29609e-214
3.04956e-214
1.46437e-214
6.95376e-215
3.25195e-215
1.48729e-215
6.57077e-216
2.73761e-216
1.01772e-216
2.81353e-217
-7.97764e-219
-1.01633e-217
-1.15062e-217
-9.9657e-218
-7.70764e-218
-5.54618e-218
-3.69453e-218
-2.0967e-218
-5.53079e-219
1.26508e-218
3.87889e-218
8.14493e-218
1.55086e-217
2.84255e-217
5.10423e-217
9.02689e-217
1.57419e-216
2.70633e-216
4.58319e-216
7.63763e-216
1.25091e-215
2.01086e-215
3.16784e-215
4.88244e-215
7.34804e-215
1.0775e-214
1.53557e-214
2.12044e-214
2.82685e-214
3.62184e-214
4.43356e-214
5.14408e-214
5.59229e-214
3.49079e-205
3.2112e-205
2.76755e-205
2.26064e-205
1.76422e-205
1.32317e-205
9.58061e-206
6.72147e-206
4.58274e-206
3.04416e-206
1.97437e-206
1.25262e-206
7.7869e-207
4.7501e-207
2.84718e-207
1.6789e-207
9.75022e-208
5.58249e-208
3.1541e-208
1.76011e-208
9.70896e-209
5.29798e-209
2.86194e-209
1.5315e-209
8.1236e-210
4.27378e-210
2.23123e-210
1.15655e-210
5.95496e-211
3.04699e-211
1.54992e-211
7.84054e-212
3.94556e-212
1.97561e-212
9.84451e-213
4.8822e-213
2.40954e-213
1.18314e-213
5.77664e-214
2.80179e-214
1.34776e-214
6.4132e-215
3.00597e-215
1.37813e-215
6.10467e-216
2.55186e-216
9.54173e-217
2.68778e-217
-9.5979e-220
-8.8363e-218
-1.00823e-217
-8.61293e-218
-6.42221e-218
-4.21678e-218
-2.09622e-218
1.72564e-219
3.10151e-218
7.57896e-218
1.51188e-217
2.83132e-217
5.15924e-217
9.24576e-217
1.63423e-216
2.84994e-216
4.90061e-216
8.3014e-216
1.38375e-215
2.26688e-215
3.64481e-215
5.74293e-215
8.85262e-215
1.33248e-214
1.95411e-214
2.7851e-214
3.84618e-214
5.12786e-214
6.57036e-214
8.04333e-214
9.3328e-214
1.01464e-213
6.31142e-205
5.80591e-205
5.00377e-205
4.08728e-205
3.18973e-205
2.3923e-205
1.73218e-205
1.21525e-205
8.28562e-206
5.50386e-206
3.56966e-206
2.26474e-206
1.40787e-206
8.58824e-207
5.14776e-207
3.03553e-207
1.76292e-207
1.0094e-207
5.70336e-208
3.18291e-208
1.75591e-208
9.583e-209
5.17769e-209
2.77143e-209
1.47058e-209
7.74013e-210
4.04329e-210
2.09739e-210
1.08093e-210
5.53728e-211
2.82071e-211
1.42941e-211
7.20845e-212
3.61865e-212
1.80874e-212
9.00341e-213
4.46345e-213
2.20365e-213
1.08321e-213
5.29861e-214
2.57689e-214
1.24416e-214
5.94968e-215
2.80768e-215
1.2998e-215
5.84519e-216
2.50845e-216
9.90619e-217
3.27423e-217
5.73824e-218
-3.75611e-218
-5.83771e-218
-5.01163e-218
-3.11884e-218
-6.97217e-219
2.44438e-218
7.08159e-218
1.47225e-217
2.80414e-217
5.16881e-217
9.36596e-217
1.67532e-216
2.95984e-216
5.16198e-216
8.87842e-216
1.50439e-215
2.50835e-215
4.11026e-215
6.61008e-215
1.0417e-214
1.606e-214
2.41762e-214
3.54586e-214
5.05416e-214
6.98024e-214
9.30692e-214
1.19257e-213
1.46e-213
1.69414e-213
1.84189e-213
1.14113e-204
1.04973e-204
9.04703e-205
7.38995e-205
5.76715e-205
4.32537e-205
3.13185e-205
2.1972e-205
1.49806e-205
9.9511e-206
6.45401e-206
4.09469e-206
2.54546e-206
1.55276e-206
9.30724e-207
5.4883e-207
3.18744e-207
1.82506e-207
1.03123e-207
5.75528e-208
3.17519e-208
1.73302e-208
9.36461e-209
5.01335e-209
2.66077e-209
1.40086e-209
7.32064e-210
3.79937e-210
1.95935e-210
1.00454e-210
5.12245e-211
2.59917e-211
1.31284e-211
6.60344e-212
3.30863e-212
1.65184e-212
8.219e-213
4.07624e-213
2.01511e-213
9.92849e-214
4.87384e-214
2.38235e-214
1.15842e-214
5.59508e-215
2.67837e-215
1.26666e-215
5.89016e-216
2.67464e-216
1.17377e-216
4.90209e-217
1.90857e-217
6.89501e-218
2.77879e-218
2.43733e-218
4.27242e-218
8.22239e-218
1.54225e-217
2.84245e-217
5.19521e-217
9.435e-217
1.7006e-216
3.03666e-216
5.36288e-216
9.35383e-216
1.60925e-215
2.72758e-215
4.54912e-215
7.45618e-215
1.19935e-214
1.89043e-214
2.91491e-214
4.38851e-214
6.43714e-214
9.17607e-214
1.26738e-213
1.68994e-213
2.16558e-213
2.65134e-213
3.07666e-213
3.34509e-213
2.06324e-204
1.89798e-204
1.63576e-204
1.33615e-204
1.04273e-204
7.82051e-205
5.66254e-205
3.97265e-205
2.70857e-205
1.7992e-205
1.16691e-205
7.40334e-206
4.60226e-206
2.80743e-206
1.68277e-206
9.92295e-207
5.76295e-207
3.29976e-207
1.86452e-207
1.0406e-207
5.74118e-208
3.13369e-208
1.69344e-208
9.06675e-209
4.8127e-209
2.5343e-209
1.32471e-209
6.8775e-210
3.54831e-210
1.82022e-210
9.2887e-211
4.71758e-211
2.38569e-211
1.20177e-211
6.03277e-212
3.01899e-212
1.50662e-212
7.50024e-213
3.72555e-213
1.84689e-213
9.13887e-214
4.51428e-214
2.22609e-214
1.09585e-214
5.38555e-215
2.64274e-215
1.29568e-215
6.35695e-216
3.1322e-216
1.56131e-216
7.98865e-217
4.31338e-217
2.58443e-217
1.85968e-217
1.74263e-217
2.15143e-217
3.24467e-217
5.4531e-217
9.61149e-217
1.72182e-216
3.08829e-216
5.5059e-216
9.72053e-216
1.69565e-215
2.91803e-215
4.94737e-215
8.25362e-215
1.35313e-214
2.177e-214
3.43197e-214
5.29259e-214
7.96909e-214
1.16903e-213
1.66656e-213
2.30199e-213
3.06967e-213
3.93384e-213
4.81646e-213
5.58932e-213
6.07714e-213
3.7305e-204
3.43169e-204
2.95757e-204
2.41585e-204
1.88534e-204
1.414e-204
1.02383e-204
7.18282e-205
4.89726e-205
3.25306e-205
2.10984e-205
1.33856e-205
8.32107e-206
5.07594e-206
3.04249e-206
1.79409e-206
1.04195e-206
5.96602e-207
3.37109e-207
1.88145e-207
1.03804e-207
5.66603e-208
3.06204e-208
1.63951e-208
8.70339e-209
4.58361e-209
2.3963e-209
1.24436e-209
6.42193e-210
3.29564e-210
1.68266e-210
8.55176e-211
4.32845e-211
2.1829e-211
1.09739e-211
5.50202e-212
2.75239e-212
1.37445e-212
6.85465e-213
3.41585e-213
1.70181e-213
8.48204e-214
4.23262e-214
2.1168e-214
1.06247e-214
5.36265e-215
2.72963e-215
1.40692e-215
7.38568e-216
3.98014e-216
2.22496e-216
1.30829e-216
8.26089e-217
5.80518e-217
4.81715e-217
5.02822e-217
6.64507e-217
1.0394e-216
1.77516e-216
3.14103e-216
5.60877e-216
9.98555e-216
1.76247e-215
3.07493e-215
5.29307e-215
8.97676e-215
1.49798e-214
2.45641e-214
3.95279e-214
6.23245e-214
9.61255e-214
1.44752e-213
2.12362e-213
3.02764e-213
4.18226e-213
5.57729e-213
7.14776e-213
8.75184e-213
1.01565e-212
1.10432e-212
6.74506e-204
6.2048e-204
5.34754e-204
4.36807e-204
3.40885e-204
2.55663e-204
1.85116e-204
1.29871e-204
8.85462e-205
5.88177e-205
3.81473e-205
2.4202e-205
1.5045e-205
9.17754e-206
5.50094e-206
3.24378e-206
1.88388e-206
1.07867e-206
6.09498e-207
3.40169e-207
1.8768e-207
1.02444e-207
5.53638e-208
2.96445e-208
1.57376e-208
8.28873e-209
4.33376e-209
2.25077e-209
1.16182e-209
5.96388e-210
3.0461e-210
1.54887e-210
7.84466e-211
3.95958e-211
1.99283e-211
1.00063e-211
5.01543e-212
2.51094e-212
1.25646e-212
6.28897e-213
3.15147e-213
1.58278e-213
7.97803e-214
4.04285e-214
2.06429e-214
1.06513e-214
5.57433e-215
2.97252e-215
1.62387e-215
9.14273e-216
5.33918e-216
3.25751e-216
2.09919e-216
1.46126e-216
1.15105e-216
1.09979e-216
1.3314e-216
1.96835e-216
3.27217e-216
5.7271e-216
1.01864e-215
1.81135e-215
3.19648e-215
5.57774e-215
9.60392e-215
1.62923e-214
2.71943e-214
4.46033e-214
7.17872e-214
1.13205e-213
1.7462e-213
2.62979e-213
3.85839e-213
5.50125e-213
7.59963e-213
1.0135e-212
1.29894e-212
1.59051e-212
1.84584e-212
2.00702e-212
1.21957e-203
1.12188e-203
9.66885e-204
7.89786e-204
6.16351e-204
4.62262e-204
3.34706e-204
2.34818e-204
1.60099e-204
1.06347e-204
6.89732e-205
4.37589e-205
2.72023e-205
1.65935e-205
9.94598e-206
5.86488e-206
3.40611e-206
1.95026e-206
1.10198e-206
6.15028e-207
3.39327e-207
1.8522e-207
1.00099e-207
5.35989e-208
2.84551e-208
1.49874e-208
7.83665e-209
4.07038e-209
2.10135e-209
1.07887e-209
5.51182e-210
2.80362e-210
1.42065e-210
7.17533e-211
3.61446e-211
1.81701e-211
9.12164e-212
4.57627e-212
2.29635e-212
1.15366e-212
5.80962e-213
2.93678e-213
1.4929e-213
7.64885e-214
3.96063e-214
2.07963e-214
1.11163e-214
6.0753e-215
3.40993e-215
1.97384e-215
1.18268e-215
7.36312e-216
4.79474e-216
3.31987e-216
2.54085e-216
2.30015e-216
2.61876e-216
3.70358e-216
6.0187e-216
1.04357e-215
1.84988e-215
3.28619e-215
5.79844e-215
1.01199e-214
1.74293e-214
2.95751e-214
4.9377e-214
8.10027e-214
1.30392e-213
2.05648e-213
3.17248e-213
4.77815e-213
7.0109e-213
9.99662e-213
1.38104e-212
1.84186e-212
2.36069e-212
2.89067e-212
3.3548e-212
3.64779e-212
2.20509e-203
2.02847e-203
1.74822e-203
1.42801e-203
1.11442e-203
8.35813e-204
6.0518e-204
4.24572e-204
2.89473e-204
1.92285e-204
1.24709e-204
7.91195e-205
4.91837e-205
3.00022e-205
1.79829e-205
1.0604e-205
6.15838e-206
3.52612e-206
1.9924e-206
1.11198e-206
6.13504e-207
3.34878e-207
1.80979e-207
9.69071e-208
5.14475e-208
2.70982e-208
1.41697e-208
7.36019e-209
3.80004e-209
1.95125e-209
9.97046e-210
5.07281e-210
2.57139e-210
1.29938e-210
6.54982e-211
3.29567e-211
1.65655e-211
8.32502e-212
4.18709e-212
2.11007e-212
1.06699e-212
5.42312e-213
2.77649e-213
1.43555e-213
7.51879e-214
4.00328e-214
2.17511e-214
1.21065e-214
6.92693e-215
4.08551e-215
2.48872e-215
1.56871e-215
1.02766e-215
7.08957e-216
5.32812e-216
4.65397e-216
5.0692e-216
6.92454e-216
1.10452e-215
1.90017e-215
3.35896e-215
5.96231e-215
1.05199e-214
1.83637e-214
3.16352e-214
5.36935e-214
8.96627e-214
1.47117e-213
2.36851e-213
3.73592e-213
5.76383e-213
8.68166e-213
1.27392e-212
1.81652e-212
2.50964e-212
3.34717e-212
4.29016e-212
5.25345e-212
6.09708e-212
6.62961e-212
3.987e-203
3.66767e-203
3.16094e-203
2.58197e-203
2.01497e-203
1.51123e-203
1.09422e-203
7.67665e-204
5.23393e-204
3.47668e-204
2.25485e-204
1.43055e-204
8.89278e-205
5.42461e-205
3.25143e-205
1.91726e-205
1.11346e-205
6.37536e-206
3.60232e-206
2.01047e-206
1.10922e-206
6.05457e-207
3.27208e-207
1.75207e-207
9.30166e-208
4.89938e-208
2.56194e-208
1.3308e-208
6.87121e-209
3.52853e-209
1.80322e-209
9.17612e-210
4.65253e-210
2.35188e-210
1.18613e-210
5.9725e-211
3.00504e-211
1.51226e-211
7.62026e-212
3.84999e-212
1.95345e-212
9.97365e-213
5.13628e-213
2.67556e-213
1.41436e-213
7.6142e-214
4.18966e-214
2.36412e-214
1.37167e-214
8.19684e-215
5.04891e-215
3.20787e-215
2.10888e-215
1.45071e-215
1.07675e-215
9.17433e-216
9.67487e-216
1.28668e-215
2.02212e-215
3.45706e-215
6.09781e-215
1.08179e-214
1.90873e-214
3.33256e-214
5.74234e-214
9.74842e-214
1.62819e-213
2.67191e-213
4.30217e-213
6.78659e-213
1.04712e-212
1.5773e-212
2.31458e-212
3.30057e-212
4.56008e-212
6.08207e-212
7.79577e-212
9.5464e-212
1.10796e-211
1.20473e-211
7.20883e-203
6.63145e-203
5.71526e-203
4.66843e-203
3.64325e-203
2.73243e-203
1.97845e-203
1.38801e-203
9.4634e-204
6.28613e-204
4.07695e-204
2.58654e-204
1.60788e-204
9.80808e-205
5.87879e-205
3.46652e-205