/*--------------------------------*- C++ -*----------------------------------*\
  =========                 |
  \\      /  F ield         | OpenFOAM: The Open Source CFD Toolbox
   \\    /   O peration     | Website:  https://openfoam.org
    \\  /    A nd           | Version:  11
     \\/     M anipulation  |
\*---------------------------------------------------------------------------*/
FoamFile
{
    format      ascii;
    class       volScalarField;
    location    "5";
    object      C;
}
// * * * * * * * * * * * * * * * * * * * * * * * * * * * * * * * * * * * * * //

dimensions      [0 0 0 1 0 0 0];

internalField   nonuniform List<scalar> 
427520
(
2.99494e-12
2.98927e-12
2.97953e-12
2.96673e-12
2.95153e-12
2.93442e-12
2.91581e-12
2.896e-12
2.87527e-12
2.85384e-12
2.83192e-12
2.80968e-12
2.78728e-12
2.76486e-12
2.74254e-12
2.72044e-12
2.69865e-12
2.67728e-12
2.65639e-12
2.63606e-12
2.61636e-12
2.59736e-12
2.57909e-12
2.56163e-12
2.54499e-12
2.52924e-12
2.51439e-12
2.5005e-12
2.48757e-12
2.47564e-12
2.46473e-12
2.45486e-12
2.44604e-12
2.4383e-12
2.43164e-12
2.42607e-12
2.42161e-12
2.41826e-12
2.41602e-12
2.4149e-12
2.4149e-12
2.41602e-12
2.41826e-12
2.42161e-12
2.42607e-12
2.43164e-12
2.4383e-12
2.44604e-12
2.45485e-12
2.46473e-12
2.47564e-12
2.48757e-12
2.50049e-12
2.51439e-12
2.52923e-12
2.54499e-12
2.56162e-12
2.57909e-12
2.59735e-12
2.61636e-12
2.63606e-12
2.65638e-12
2.67727e-12
2.69865e-12
2.72043e-12
2.74254e-12
2.76486e-12
2.78728e-12
2.80968e-12
2.83192e-12
2.85384e-12
2.87526e-12
2.896e-12
2.9158e-12
2.93442e-12
2.95152e-12
2.96672e-12
2.97953e-12
2.98926e-12
2.99494e-12
9.01079e-12
8.99819e-12
8.97533e-12
8.94405e-12
8.90586e-12
8.86196e-12
8.81341e-12
8.76106e-12
8.70569e-12
8.64795e-12
8.58843e-12
8.52767e-12
8.46612e-12
8.4042e-12
8.3423e-12
8.28075e-12
8.21987e-12
8.15993e-12
8.10119e-12
8.04388e-12
7.98821e-12
7.93438e-12
7.88254e-12
7.83286e-12
7.78548e-12
7.74053e-12
7.69812e-12
7.65835e-12
7.62132e-12
7.58711e-12
7.55579e-12
7.52743e-12
7.50209e-12
7.47981e-12
7.46063e-12
7.4446e-12
7.43175e-12
7.42208e-12
7.41563e-12
7.4124e-12
7.4124e-12
7.41563e-12
7.42208e-12
7.43174e-12
7.4446e-12
7.46063e-12
7.4798e-12
7.50208e-12
7.52742e-12
7.55578e-12
7.5871e-12
7.62131e-12
7.65834e-12
7.69811e-12
7.74052e-12
7.78547e-12
7.83285e-12
7.88253e-12
7.93436e-12
7.9882e-12
8.04387e-12
8.10118e-12
8.15991e-12
8.21985e-12
8.28073e-12
8.34228e-12
8.40419e-12
8.4661e-12
8.52765e-12
8.58842e-12
8.64793e-12
8.70567e-12
8.76104e-12
8.81339e-12
8.86195e-12
8.90584e-12
8.94404e-12
8.97532e-12
8.99818e-12
9.01078e-12
1.50779e-11
1.50603e-11
1.50276e-11
1.49822e-11
1.49259e-11
1.48605e-11
1.47875e-11
1.47081e-11
1.46236e-11
1.4535e-11
1.44431e-11
1.43489e-11
1.42531e-11
1.41565e-11
1.40595e-11
1.39628e-11
1.38669e-11
1.37722e-11
1.36793e-11
1.35884e-11
1.35e-11
1.34143e-11
1.33317e-11
1.32525e-11
1.31768e-11
1.31049e-11
1.30369e-11
1.29732e-11
1.29138e-11
1.28588e-11
1.28085e-11
1.27629e-11
1.27221e-11
1.26863e-11
1.26554e-11
1.26296e-11
1.26088e-11
1.25933e-11
1.25828e-11
1.25776e-11
1.25776e-11
1.25828e-11
1.25932e-11
1.26088e-11
1.26295e-11
1.26554e-11
1.26862e-11
1.27221e-11
1.27629e-11
1.28085e-11
1.28588e-11
1.29138e-11
1.29732e-11
1.30369e-11
1.31048e-11
1.31767e-11
1.32524e-11
1.33317e-11
1.34143e-11
1.35e-11
1.35884e-11
1.36793e-11
1.37722e-11
1.38668e-11
1.39627e-11
1.40594e-11
1.41564e-11
1.42531e-11
1.43489e-11
1.44431e-11
1.45349e-11
1.46236e-11
1.47081e-11
1.47875e-11
1.48605e-11
1.49259e-11
1.49822e-11
1.50276e-11
1.50603e-11
1.50779e-11
2.12148e-11
2.11932e-11
2.11527e-11
2.10959e-11
2.10249e-11
2.09417e-11
2.08482e-11
2.07461e-11
2.06367e-11
2.05215e-11
2.04017e-11
2.02783e-11
2.01525e-11
2.00251e-11
1.98969e-11
1.97688e-11
1.96415e-11
1.95156e-11
1.93917e-11
1.92704e-11
1.91522e-11
1.90375e-11
1.89267e-11
1.88202e-11
1.87185e-11
1.86217e-11
1.85302e-11
1.84443e-11
1.83641e-11
1.82899e-11
1.82219e-11
1.81602e-11
1.81051e-11
1.80565e-11
1.80147e-11
1.79798e-11
1.79517e-11
1.79306e-11
1.79165e-11
1.79094e-11
1.79094e-11
1.79165e-11
1.79306e-11
1.79517e-11
1.79797e-11
1.80147e-11
1.80565e-11
1.81051e-11
1.81602e-11
1.82219e-11
1.82899e-11
1.83641e-11
1.84442e-11
1.85302e-11
1.86217e-11
1.87185e-11
1.88202e-11
1.89267e-11
1.90374e-11
1.91522e-11
1.92704e-11
1.93917e-11
1.95156e-11
1.96415e-11
1.97688e-11
1.98969e-11
2.0025e-11
2.01525e-11
2.02783e-11
2.04017e-11
2.05215e-11
2.06367e-11
2.07461e-11
2.08482e-11
2.09417e-11
2.10248e-11
2.10958e-11
2.11527e-11
2.11931e-11
2.12147e-11
2.74359e-11
2.74111e-11
2.73641e-11
2.72977e-11
2.72143e-11
2.71162e-11
2.70053e-11
2.68836e-11
2.67528e-11
2.66145e-11
2.64702e-11
2.63212e-11
2.61688e-11
2.60141e-11
2.58581e-11
2.57019e-11
2.55463e-11
2.53922e-11
2.52403e-11
2.50913e-11
2.49459e-11
2.48046e-11
2.4668e-11
2.45366e-11
2.44109e-11
2.42912e-11
2.41779e-11
2.40714e-11
2.3972e-11
2.38799e-11
2.37955e-11
2.37189e-11
2.36504e-11
2.359e-11
2.3538e-11
2.34945e-11
2.34596e-11
2.34333e-11
2.34157e-11
2.3407e-11
2.34069e-11
2.34157e-11
2.34333e-11
2.34596e-11
2.34945e-11
2.3538e-11
2.359e-11
2.36503e-11
2.37189e-11
2.37955e-11
2.38799e-11
2.3972e-11
2.40714e-11
2.41779e-11
2.42911e-11
2.44108e-11
2.45366e-11
2.4668e-11
2.48046e-11
2.49458e-11
2.50913e-11
2.52402e-11
2.53921e-11
2.55463e-11
2.57018e-11
2.58581e-11
2.6014e-11
2.61687e-11
2.63212e-11
2.64702e-11
2.66145e-11
2.67528e-11
2.68836e-11
2.70053e-11
2.71161e-11
2.72143e-11
2.72977e-11
2.73641e-11
2.7411e-11
2.74359e-11
3.37536e-11
3.37259e-11
3.36734e-11
3.35988e-11
3.35048e-11
3.33936e-11
3.32676e-11
3.31289e-11
3.29793e-11
3.28207e-11
3.26548e-11
3.2483e-11
3.23069e-11
3.21278e-11
3.19469e-11
3.17654e-11
3.15842e-11
3.14045e-11
3.12272e-11
3.1053e-11
3.08827e-11
3.07171e-11
3.05568e-11
3.04025e-11
3.02546e-11
3.01138e-11
2.99804e-11
2.98549e-11
2.97376e-11
2.9629e-11
2.95293e-11
2.94388e-11
2.93578e-11
2.92865e-11
2.9225e-11
2.91735e-11
2.91321e-11
2.9101e-11
2.90803e-11
2.90699e-11
2.90699e-11
2.90803e-11
2.9101e-11
2.91321e-11
2.91735e-11
2.9225e-11
2.92864e-11
2.93578e-11
2.94388e-11
2.95293e-11
2.9629e-11
2.97376e-11
2.98548e-11
2.99803e-11
3.01137e-11
3.02546e-11
3.04025e-11
3.05568e-11
3.07171e-11
3.08827e-11
3.10529e-11
3.12271e-11
3.14045e-11
3.15842e-11
3.17653e-11
3.19468e-11
3.21277e-11
3.23069e-11
3.2483e-11
3.26547e-11
3.28207e-11
3.29793e-11
3.31288e-11
3.32676e-11
3.33936e-11
3.35047e-11
3.35988e-11
3.36733e-11
3.37258e-11
3.37536e-11
4.01782e-11
4.0148e-11
4.00906e-11
4.00089e-11
3.99054e-11
3.97829e-11
3.96435e-11
3.94897e-11
3.93234e-11
3.91468e-11
3.89615e-11
3.87694e-11
3.8572e-11
3.83709e-11
3.81675e-11
3.7963e-11
3.77587e-11
3.75557e-11
3.73551e-11
3.71578e-11
3.69648e-11
3.67769e-11
3.65948e-11
3.64193e-11
3.62511e-11
3.60906e-11
3.59386e-11
3.57955e-11
3.56617e-11
3.55377e-11
3.54238e-11
3.53204e-11
3.52277e-11
3.51461e-11
3.50758e-11
3.50168e-11
3.49695e-11
3.49339e-11
3.49101e-11
3.48982e-11
3.48982e-11
3.49101e-11
3.49339e-11
3.49695e-11
3.50168e-11
3.50757e-11
3.51461e-11
3.52277e-11
3.53203e-11
3.54238e-11
3.55376e-11
3.56616e-11
3.57954e-11
3.59386e-11
3.60906e-11
3.6251e-11
3.64193e-11
3.65948e-11
3.67768e-11
3.69647e-11
3.71578e-11
3.7355e-11
3.75556e-11
3.77586e-11
3.79629e-11
3.81674e-11
3.83708e-11
3.8572e-11
3.87693e-11
3.89614e-11
3.91467e-11
3.93234e-11
3.94896e-11
3.96434e-11
3.97828e-11
3.99054e-11
4.00088e-11
4.00906e-11
4.0148e-11
4.01782e-11
4.6719e-11
4.66866e-11
4.66248e-11
4.65366e-11
4.64248e-11
4.62919e-11
4.61407e-11
4.59733e-11
4.5792e-11
4.55991e-11
4.53964e-11
4.51858e-11
4.49692e-11
4.47481e-11
4.45242e-11
4.42988e-11
4.40733e-11
4.3849e-11
4.36271e-11
4.34086e-11
4.31946e-11
4.29861e-11
4.2784e-11
4.25889e-11
4.24018e-11
4.22232e-11
4.20539e-11
4.18944e-11
4.17452e-11
4.16068e-11
4.14797e-11
4.13643e-11
4.12608e-11
4.11696e-11
4.1091e-11
4.10251e-11
4.09722e-11
4.09324e-11
4.09058e-11
4.08925e-11
4.08925e-11
4.09058e-11
4.09324e-11
4.09722e-11
4.10251e-11
4.1091e-11
4.11696e-11
4.12608e-11
4.13642e-11
4.14797e-11
4.16068e-11
4.17452e-11
4.18943e-11
4.20538e-11
4.22232e-11
4.24017e-11
4.25888e-11
4.27839e-11
4.29861e-11
4.31946e-11
4.34085e-11
4.3627e-11
4.38489e-11
4.40732e-11
4.42987e-11
4.45241e-11
4.4748e-11
4.49691e-11
4.51857e-11
4.53963e-11
4.5599e-11
4.57919e-11
4.59732e-11
4.61406e-11
4.62919e-11
4.64247e-11
4.65365e-11
4.66247e-11
4.66865e-11
4.67189e-11
5.33843e-11
5.33498e-11
5.32841e-11
5.319e-11
5.30705e-11
5.29284e-11
5.27662e-11
5.25865e-11
5.23916e-11
5.21838e-11
5.19652e-11
5.17378e-11
5.15036e-11
5.12642e-11
5.10214e-11
5.07768e-11
5.05319e-11
5.02879e-11
5.00464e-11
4.98083e-11
4.9575e-11
4.93474e-11
4.91266e-11
4.89134e-11
4.87088e-11
4.85133e-11
4.83279e-11
4.81532e-11
4.79896e-11
4.78379e-11
4.76984e-11
4.75717e-11
4.74581e-11
4.7358e-11
4.72716e-11
4.71992e-11
4.71411e-11
4.70973e-11
4.70681e-11
4.70534e-11
4.70534e-11
4.70681e-11
4.70973e-11
4.71411e-11
4.71992e-11
4.72716e-11
4.73579e-11
4.74581e-11
4.75717e-11
4.76984e-11
4.78378e-11
4.79896e-11
4.81531e-11
4.83279e-11
4.85133e-11
4.87087e-11
4.89134e-11
4.91265e-11
4.93474e-11
4.95749e-11
4.98083e-11
5.00463e-11
5.02878e-11
5.05318e-11
5.07767e-11
5.10213e-11
5.12641e-11
5.15035e-11
5.17377e-11
5.19651e-11
5.21837e-11
5.23915e-11
5.25864e-11
5.27661e-11
5.29283e-11
5.30704e-11
5.31899e-11
5.3284e-11
5.33497e-11
5.33842e-11
6.01816e-11
6.01453e-11
6.00758e-11
5.99764e-11
5.98498e-11
5.96991e-11
5.95269e-11
5.93359e-11
5.91284e-11
5.8907e-11
5.86737e-11
5.84308e-11
5.81803e-11
5.7924e-11
5.76639e-11
5.74015e-11
5.71385e-11
5.68763e-11
5.66165e-11
5.63603e-11
5.6109e-11
5.58637e-11
5.56255e-11
5.53954e-11
5.51744e-11
5.49632e-11
5.47628e-11
5.45737e-11
5.43968e-11
5.42325e-11
5.40815e-11
5.39442e-11
5.38211e-11
5.37125e-11
5.36189e-11
5.35404e-11
5.34774e-11
5.34299e-11
5.33982e-11
5.33823e-11
5.33823e-11
5.33982e-11
5.34299e-11
5.34773e-11
5.35404e-11
5.36189e-11
5.37125e-11
5.38211e-11
5.39442e-11
5.40814e-11
5.42324e-11
5.43967e-11
5.45736e-11
5.47627e-11
5.49631e-11
5.51743e-11
5.53953e-11
5.56254e-11
5.58636e-11
5.61089e-11
5.63602e-11
5.66164e-11
5.68762e-11
5.71383e-11
5.74014e-11
5.76637e-11
5.79239e-11
5.81802e-11
5.84307e-11
5.86736e-11
5.89068e-11
5.91283e-11
5.93358e-11
5.95268e-11
5.9699e-11
5.98497e-11
5.99762e-11
6.00757e-11
6.01452e-11
6.01815e-11
6.71181e-11
6.708e-11
6.70071e-11
6.69026e-11
6.67695e-11
6.66108e-11
6.64292e-11
6.62276e-11
6.60085e-11
6.57743e-11
6.55274e-11
6.527e-11
6.50044e-11
6.47324e-11
6.4456e-11
6.4177e-11
6.38972e-11
6.36181e-11
6.33412e-11
6.30681e-11
6.27999e-11
6.2538e-11
6.22835e-11
6.20376e-11
6.18012e-11
6.15753e-11
6.13607e-11
6.11583e-11
6.09687e-11
6.07927e-11
6.06308e-11
6.04836e-11
6.03515e-11
6.02351e-11
6.01346e-11
6.00504e-11
5.99827e-11
5.99317e-11
5.98977e-11
5.98806e-11
5.98806e-11
5.98977e-11
5.99317e-11
5.99826e-11
6.00503e-11
6.01345e-11
6.0235e-11
6.03515e-11
6.04835e-11
6.06307e-11
6.07926e-11
6.09686e-11
6.11582e-11
6.13606e-11
6.15752e-11
6.18011e-11
6.20375e-11
6.22834e-11
6.25379e-11
6.27998e-11
6.30679e-11
6.33411e-11
6.3618e-11
6.38971e-11
6.41769e-11
6.44559e-11
6.47322e-11
6.50042e-11
6.52699e-11
6.55272e-11
6.57741e-11
6.60083e-11
6.62275e-11
6.64291e-11
6.66106e-11
6.67693e-11
6.69024e-11
6.7007e-11
6.70799e-11
6.71179e-11
7.42003e-11
7.41605e-11
7.40844e-11
7.39751e-11
7.38358e-11
7.36695e-11
7.34792e-11
7.32677e-11
7.30375e-11
7.27914e-11
7.25317e-11
7.22607e-11
7.19808e-11
7.16941e-11
7.14025e-11
7.11079e-11
7.08123e-11
7.05172e-11
7.02243e-11
6.99352e-11
6.96512e-11
6.93737e-11
6.91039e-11
6.8843e-11
6.85922e-11
6.83523e-11
6.81244e-11
6.79094e-11
6.77079e-11
6.75208e-11
6.73486e-11
6.7192e-11
6.70515e-11
6.69276e-11
6.68206e-11
6.6731e-11
6.66589e-11
6.66046e-11
6.65684e-11
6.65502e-11
6.65502e-11
6.65684e-11
6.66046e-11
6.66589e-11
6.67309e-11
6.68206e-11
6.69275e-11
6.70515e-11
6.71919e-11
6.73485e-11
6.75207e-11
6.77078e-11
6.79093e-11
6.81244e-11
6.83522e-11
6.85921e-11
6.88429e-11
6.91038e-11
6.93736e-11
6.96511e-11
6.99351e-11
7.02242e-11
7.05171e-11
7.08121e-11
7.11078e-11
7.14023e-11
7.16939e-11
7.19807e-11
7.22606e-11
7.25315e-11
7.27912e-11
7.30374e-11
7.32675e-11
7.34791e-11
7.36694e-11
7.38357e-11
7.3975e-11
7.40842e-11
7.41604e-11
7.42002e-11
8.14346e-11
8.13932e-11
8.1314e-11
8.12001e-11
8.10549e-11
8.08815e-11
8.06828e-11
8.04618e-11
8.02212e-11
7.99637e-11
7.96919e-11
7.94081e-11
7.91147e-11
7.8814e-11
7.8508e-11
7.81987e-11
7.7888e-11
7.75779e-11
7.72698e-11
7.69655e-11
7.66665e-11
7.63742e-11
7.609e-11
7.58149e-11
7.55504e-11
7.52973e-11
7.50568e-11
7.48298e-11
7.4617e-11
7.44193e-11
7.42374e-11
7.40719e-11
7.39234e-11
7.37924e-11
7.36793e-11
7.35844e-11
7.35082e-11
7.34508e-11
7.34125e-11
7.33933e-11
7.33933e-11
7.34125e-11
7.34508e-11
7.35082e-11
7.35844e-11
7.36792e-11
7.37923e-11
7.39233e-11
7.40719e-11
7.42373e-11
7.44192e-11
7.46169e-11
7.48297e-11
7.50567e-11
7.52972e-11
7.55503e-11
7.58148e-11
7.60898e-11
7.63741e-11
7.66664e-11
7.69654e-11
7.72697e-11
7.75777e-11
7.78879e-11
7.81985e-11
7.85078e-11
7.88138e-11
7.91146e-11
7.94079e-11
7.96917e-11
7.99636e-11
8.02211e-11
8.04617e-11
8.06827e-11
8.08813e-11
8.10548e-11
8.12e-11
8.13138e-11
8.13931e-11
8.14344e-11
8.8827e-11
8.87841e-11
8.87018e-11
8.85836e-11
8.84327e-11
8.82524e-11
8.80457e-11
8.78157e-11
8.75651e-11
8.72968e-11
8.70133e-11
8.67172e-11
8.6411e-11
8.60969e-11
8.57771e-11
8.54538e-11
8.51289e-11
8.48043e-11
8.44818e-11
8.41631e-11
8.38498e-11
8.35434e-11
8.32453e-11
8.29568e-11
8.26792e-11
8.24135e-11
8.2161e-11
8.19225e-11
8.1699e-11
8.14912e-11
8.13e-11
8.1126e-11
8.09699e-11
8.08321e-11
8.07131e-11
8.06134e-11
8.05332e-11
8.04728e-11
8.04325e-11
8.04122e-11
8.04122e-11
8.04324e-11
8.04728e-11
8.05332e-11
8.06133e-11
8.07131e-11
8.0832e-11
8.09698e-11
8.1126e-11
8.12999e-11
8.14911e-11
8.16989e-11
8.19224e-11
8.21609e-11
8.24134e-11
8.2679e-11
8.29567e-11
8.32451e-11
8.35432e-11
8.38496e-11
8.41629e-11
8.44816e-11
8.48041e-11
8.51287e-11
8.54536e-11
8.57769e-11
8.60967e-11
8.64108e-11
8.67171e-11
8.70131e-11
8.72966e-11
8.75649e-11
8.78155e-11
8.80456e-11
8.82523e-11
8.84326e-11
8.85834e-11
8.87017e-11
8.87839e-11
8.88268e-11
9.63834e-11
9.6339e-11
9.62538e-11
9.61313e-11
9.5975e-11
9.5788e-11
9.55736e-11
9.53348e-11
9.50745e-11
9.47957e-11
9.45011e-11
9.41932e-11
9.38746e-11
9.35476e-11
9.32146e-11
9.28778e-11
9.25392e-11
9.22008e-11
9.18644e-11
9.15319e-11
9.12048e-11
9.08849e-11
9.05736e-11
9.02721e-11
8.9982e-11
8.97043e-11
8.94402e-11
8.91908e-11
8.89569e-11
8.87396e-11
8.85394e-11
8.83573e-11
8.81938e-11
8.80495e-11
8.7925e-11
8.78205e-11
8.77365e-11
8.76733e-11
8.7631e-11
8.76098e-11
8.76098e-11
8.7631e-11
8.76732e-11
8.77365e-11
8.78205e-11
8.79249e-11
8.80495e-11
8.81938e-11
8.83572e-11
8.85394e-11
8.87395e-11
8.89568e-11
8.91907e-11
8.94401e-11
8.97042e-11
8.99819e-11
9.0272e-11
9.05734e-11
9.08848e-11
9.12047e-11
9.15317e-11
9.18642e-11
9.22006e-11
9.2539e-11
9.28776e-11
9.32145e-11
9.35475e-11
9.38744e-11
9.4193e-11
9.45009e-11
9.47956e-11
9.50744e-11
9.53346e-11
9.55734e-11
9.57878e-11
9.59748e-11
9.61312e-11
9.62536e-11
9.63388e-11
9.63832e-11
1.0411e-10
1.04064e-10
1.03976e-10
1.03849e-10
1.03687e-10
1.03494e-10
1.03272e-10
1.03024e-10
1.02755e-10
1.02466e-10
1.0216e-10
1.01841e-10
1.0151e-10
1.01171e-10
1.00825e-10
1.00475e-10
1.00124e-10
9.97718e-11
9.9422e-11
9.90761e-11
9.87359e-11
9.84029e-11
9.80787e-11
9.77648e-11
9.74626e-11
9.71733e-11
9.68981e-11
9.66381e-11
9.63943e-11
9.61676e-11
9.59589e-11
9.5769e-11
9.55984e-11
9.54479e-11
9.53179e-11
9.52089e-11
9.51212e-11
9.50552e-11
9.50111e-11
9.4989e-11
9.4989e-11
9.50111e-11
9.50552e-11
9.51212e-11
9.52088e-11
9.53178e-11
9.54478e-11
9.55983e-11
9.57689e-11
9.59588e-11
9.61675e-11
9.63942e-11
9.6638e-11
9.6898e-11
9.71732e-11
9.74625e-11
9.77647e-11
9.80786e-11
9.84027e-11
9.87357e-11
9.90759e-11
9.94218e-11
9.97716e-11
1.00123e-10
1.00475e-10
1.00825e-10
1.01171e-10
1.0151e-10
1.01841e-10
1.0216e-10
1.02466e-10
1.02755e-10
1.03024e-10
1.03272e-10
1.03494e-10
1.03687e-10
1.03849e-10
1.03975e-10
1.04063e-10
1.04109e-10
1.12011e-10
1.11964e-10
1.11873e-10
1.11742e-10
1.11575e-10
1.11375e-10
1.11146e-10
1.1089e-10
1.10611e-10
1.10313e-10
1.09996e-10
1.09666e-10
1.09324e-10
1.08972e-10
1.08614e-10
1.08251e-10
1.07887e-10
1.07522e-10
1.07159e-10
1.068e-10
1.06447e-10
1.06101e-10
1.05765e-10
1.05439e-10
1.05125e-10
1.04824e-10
1.04538e-10
1.04268e-10
1.04015e-10
1.03779e-10
1.03562e-10
1.03364e-10
1.03187e-10
1.0303e-10
1.02895e-10
1.02782e-10
1.02691e-10
1.02622e-10
1.02576e-10
1.02553e-10
1.02553e-10
1.02576e-10
1.02622e-10
1.0269e-10
1.02782e-10
1.02895e-10
1.0303e-10
1.03187e-10
1.03364e-10
1.03562e-10
1.03779e-10
1.04015e-10
1.04268e-10
1.04538e-10
1.04824e-10
1.05125e-10
1.05439e-10
1.05765e-10
1.06101e-10
1.06447e-10
1.068e-10
1.07159e-10
1.07522e-10
1.07886e-10
1.08251e-10
1.08614e-10
1.08972e-10
1.09323e-10
1.09666e-10
1.09996e-10
1.10312e-10
1.10611e-10
1.1089e-10
1.11146e-10
1.11375e-10
1.11575e-10
1.11742e-10
1.11873e-10
1.11963e-10
1.12011e-10
1.20093e-10
1.20044e-10
1.19951e-10
1.19816e-10
1.19644e-10
1.19438e-10
1.19201e-10
1.18937e-10
1.18649e-10
1.18341e-10
1.18014e-10
1.17673e-10
1.17319e-10
1.16956e-10
1.16585e-10
1.1621e-10
1.15833e-10
1.15455e-10
1.1508e-10
1.14708e-10
1.14343e-10
1.13985e-10
1.13636e-10
1.13298e-10
1.12973e-10
1.12661e-10
1.12365e-10
1.12085e-10
1.11822e-10
1.11577e-10
1.11352e-10
1.11147e-10
1.10963e-10
1.10801e-10
1.1066e-10
1.10543e-10
1.10448e-10
1.10377e-10
1.10329e-10
1.10305e-10
1.10305e-10
1.10329e-10
1.10377e-10
1.10448e-10
1.10543e-10
1.1066e-10
1.10801e-10
1.10963e-10
1.11147e-10
1.11352e-10
1.11577e-10
1.11822e-10
1.12084e-10
1.12365e-10
1.12661e-10
1.12973e-10
1.13298e-10
1.13636e-10
1.13984e-10
1.14342e-10
1.14708e-10
1.1508e-10
1.15455e-10
1.15833e-10
1.1621e-10
1.16585e-10
1.16955e-10
1.17319e-10
1.17673e-10
1.18014e-10
1.18341e-10
1.18649e-10
1.18937e-10
1.19201e-10
1.19437e-10
1.19644e-10
1.19816e-10
1.19951e-10
1.20044e-10
1.20093e-10
1.28362e-10
1.28312e-10
1.28215e-10
1.28077e-10
1.27899e-10
1.27687e-10
1.27443e-10
1.27171e-10
1.26874e-10
1.26556e-10
1.26219e-10
1.25867e-10
1.25502e-10
1.25127e-10
1.24744e-10
1.24357e-10
1.23967e-10
1.23577e-10
1.23189e-10
1.22805e-10
1.22427e-10
1.22057e-10
1.21697e-10
1.21347e-10
1.21011e-10
1.20688e-10
1.20382e-10
1.20092e-10
1.1982e-10
1.19567e-10
1.19333e-10
1.19121e-10
1.18931e-10
1.18762e-10
1.18617e-10
1.18495e-10
1.18397e-10
1.18323e-10
1.18274e-10
1.18249e-10
1.18249e-10
1.18274e-10
1.18323e-10
1.18397e-10
1.18495e-10
1.18617e-10
1.18762e-10
1.18931e-10
1.19121e-10
1.19333e-10
1.19566e-10
1.19819e-10
1.20091e-10
1.20381e-10
1.20688e-10
1.21011e-10
1.21347e-10
1.21696e-10
1.22057e-10
1.22427e-10
1.22805e-10
1.23189e-10
1.23577e-10
1.23967e-10
1.24357e-10
1.24744e-10
1.25126e-10
1.25502e-10
1.25867e-10
1.26219e-10
1.26556e-10
1.26874e-10
1.27171e-10
1.27443e-10
1.27686e-10
1.27899e-10
1.28076e-10
1.28215e-10
1.28311e-10
1.28362e-10
1.36822e-10
1.36771e-10
1.36672e-10
1.36529e-10
1.36346e-10
1.36128e-10
1.35877e-10
1.35597e-10
1.35291e-10
1.34963e-10
1.34616e-10
1.34253e-10
1.33877e-10
1.3349e-10
1.33096e-10
1.32697e-10
1.32295e-10
1.31892e-10
1.31492e-10
1.31096e-10
1.30705e-10
1.30323e-10
1.29951e-10
1.2959e-10
1.29243e-10
1.2891e-10
1.28593e-10
1.28293e-10
1.28012e-10
1.27751e-10
1.2751e-10
1.2729e-10
1.27094e-10
1.2692e-10
1.26769e-10
1.26643e-10
1.26542e-10
1.26466e-10
1.26415e-10
1.26389e-10
1.26389e-10
1.26415e-10
1.26466e-10
1.26542e-10
1.26643e-10
1.26769e-10
1.26919e-10
1.27093e-10
1.2729e-10
1.2751e-10
1.27751e-10
1.28012e-10
1.28293e-10
1.28593e-10
1.2891e-10
1.29243e-10
1.2959e-10
1.29951e-10
1.30323e-10
1.30705e-10
1.31095e-10
1.31492e-10
1.31892e-10
1.32294e-10
1.32696e-10
1.33096e-10
1.3349e-10
1.33877e-10
1.34253e-10
1.34616e-10
1.34963e-10
1.35291e-10
1.35596e-10
1.35876e-10
1.36127e-10
1.36346e-10
1.36529e-10
1.36671e-10
1.3677e-10
1.36822e-10
1.4548e-10
1.45427e-10
1.45325e-10
1.45178e-10
1.44991e-10
1.44766e-10
1.44508e-10
1.4422e-10
1.43905e-10
1.43568e-10
1.43211e-10
1.42837e-10
1.4245e-10
1.42051e-10
1.41645e-10
1.41234e-10
1.4082e-10
1.40405e-10
1.39992e-10
1.39584e-10
1.39182e-10
1.38788e-10
1.38404e-10
1.38032e-10
1.37673e-10
1.3733e-10
1.37003e-10
1.36694e-10
1.36404e-10
1.36134e-10
1.35886e-10
1.35659e-10
1.35456e-10
1.35276e-10
1.35121e-10
1.34991e-10
1.34886e-10
1.34808e-10
1.34755e-10
1.34729e-10
1.34729e-10
1.34755e-10
1.34808e-10
1.34886e-10
1.34991e-10
1.35121e-10
1.35276e-10
1.35456e-10
1.35659e-10
1.35885e-10
1.36134e-10
1.36404e-10
1.36694e-10
1.37003e-10
1.3733e-10
1.37673e-10
1.38032e-10
1.38404e-10
1.38788e-10
1.39182e-10
1.39584e-10
1.39992e-10
1.40405e-10
1.40819e-10
1.41234e-10
1.41645e-10
1.42051e-10
1.42449e-10
1.42837e-10
1.4321e-10
1.43568e-10
1.43905e-10
1.44219e-10
1.44507e-10
1.44766e-10
1.4499e-10
1.45178e-10
1.45325e-10
1.45427e-10
1.4548e-10
1.54341e-10
1.54286e-10
1.54182e-10
1.54031e-10
1.53838e-10
1.53607e-10
1.53342e-10
1.53045e-10
1.52722e-10
1.52375e-10
1.52008e-10
1.51623e-10
1.51225e-10
1.50815e-10
1.50397e-10
1.49974e-10
1.49548e-10
1.49121e-10
1.48696e-10
1.48275e-10
1.47861e-10
1.47456e-10
1.4706e-10
1.46677e-10
1.46308e-10
1.45954e-10
1.45617e-10
1.45298e-10
1.44999e-10
1.44721e-10
1.44465e-10
1.44232e-10
1.44022e-10
1.43837e-10
1.43677e-10
1.43543e-10
1.43435e-10
1.43354e-10
1.43299e-10
1.43272e-10
1.43272e-10
1.43299e-10
1.43354e-10
1.43435e-10
1.43543e-10
1.43677e-10
1.43837e-10
1.44022e-10
1.44232e-10
1.44465e-10
1.44721e-10
1.44999e-10
1.45298e-10
1.45617e-10
1.45953e-10
1.46307e-10
1.46677e-10
1.4706e-10
1.47455e-10
1.47861e-10
1.48275e-10
1.48696e-10
1.49121e-10
1.49547e-10
1.49974e-10
1.50397e-10
1.50815e-10
1.51225e-10
1.51623e-10
1.52008e-10
1.52375e-10
1.52722e-10
1.53045e-10
1.53341e-10
1.53607e-10
1.53838e-10
1.54031e-10
1.54181e-10
1.54286e-10
1.54341e-10
1.6341e-10
1.63354e-10
1.63247e-10
1.63092e-10
1.62894e-10
1.62656e-10
1.62384e-10
1.62079e-10
1.61747e-10
1.61391e-10
1.61013e-10
1.60618e-10
1.60208e-10
1.59787e-10
1.59357e-10
1.58922e-10
1.58484e-10
1.58045e-10
1.57608e-10
1.57175e-10
1.56749e-10
1.56331e-10
1.55924e-10
1.5553e-10
1.5515e-10
1.54785e-10
1.54439e-10
1.54111e-10
1.53803e-10
1.53517e-10
1.53253e-10
1.53012e-10
1.52797e-10
1.52606e-10
1.52441e-10
1.52303e-10
1.52192e-10
1.52108e-10
1.52052e-10
1.52024e-10
1.52024e-10
1.52052e-10
1.52108e-10
1.52192e-10
1.52303e-10
1.52441e-10
1.52606e-10
1.52796e-10
1.53012e-10
1.53253e-10
1.53516e-10
1.53803e-10
1.5411e-10
1.54438e-10
1.54785e-10
1.5515e-10
1.5553e-10
1.55924e-10
1.56331e-10
1.56748e-10
1.57175e-10
1.57607e-10
1.58044e-10
1.58483e-10
1.58922e-10
1.59357e-10
1.59787e-10
1.60208e-10
1.60618e-10
1.61013e-10
1.6139e-10
1.61747e-10
1.62079e-10
1.62383e-10
1.62656e-10
1.62893e-10
1.63091e-10
1.63246e-10
1.63354e-10
1.6341e-10
1.72693e-10
1.72636e-10
1.72525e-10
1.72366e-10
1.72163e-10
1.71919e-10
1.71639e-10
1.71327e-10
1.70986e-10
1.7062e-10
1.70232e-10
1.69826e-10
1.69405e-10
1.68972e-10
1.68531e-10
1.68083e-10
1.67633e-10
1.67181e-10
1.66732e-10
1.66287e-10
1.65849e-10
1.6542e-10
1.65002e-10
1.64596e-10
1.64205e-10
1.6383e-10
1.63473e-10
1.63136e-10
1.62819e-10
1.62525e-10
1.62253e-10
1.62006e-10
1.61784e-10
1.61588e-10
1.61418e-10
1.61276e-10
1.61162e-10
1.61076e-10
1.61018e-10
1.60989e-10
1.60989e-10
1.61018e-10
1.61076e-10
1.61162e-10
1.61276e-10
1.61418e-10
1.61588e-10
1.61784e-10
1.62006e-10
1.62253e-10
1.62525e-10
1.62819e-10
1.63136e-10
1.63473e-10
1.6383e-10
1.64205e-10
1.64596e-10
1.65001e-10
1.6542e-10
1.65849e-10
1.66287e-10
1.66732e-10
1.67181e-10
1.67632e-10
1.68083e-10
1.6853e-10
1.68972e-10
1.69405e-10
1.69826e-10
1.70232e-10
1.70619e-10
1.70986e-10
1.71327e-10
1.71639e-10
1.71919e-10
1.72163e-10
1.72366e-10
1.72525e-10
1.72635e-10
1.72693e-10
1.82196e-10
1.82137e-10
1.82024e-10
1.81861e-10
1.81652e-10
1.81402e-10
1.81115e-10
1.80794e-10
1.80444e-10
1.80068e-10
1.7967e-10
1.79253e-10
1.78821e-10
1.78376e-10
1.77923e-10
1.77463e-10
1.77e-10
1.76537e-10
1.76075e-10
1.75618e-10
1.75168e-10
1.74727e-10
1.74297e-10
1.7388e-10
1.73478e-10
1.73093e-10
1.72726e-10
1.72379e-10
1.72054e-10
1.71751e-10
1.71472e-10
1.71218e-10
1.70989e-10
1.70788e-10
1.70613e-10
1.70467e-10
1.7035e-10
1.70261e-10
1.70202e-10
1.70172e-10
1.70172e-10
1.70202e-10
1.70261e-10
1.7035e-10
1.70467e-10
1.70613e-10
1.70788e-10
1.70989e-10
1.71218e-10
1.71472e-10
1.71751e-10
1.72054e-10
1.72379e-10
1.72726e-10
1.73093e-10
1.73478e-10
1.7388e-10
1.74297e-10
1.74727e-10
1.75168e-10
1.75618e-10
1.76075e-10
1.76536e-10
1.77e-10
1.77463e-10
1.77922e-10
1.78376e-10
1.7882e-10
1.79253e-10
1.79669e-10
1.80068e-10
1.80443e-10
1.80794e-10
1.81114e-10
1.81402e-10
1.81652e-10
1.8186e-10
1.82023e-10
1.82137e-10
1.82196e-10
1.91924e-10
1.91864e-10
1.91748e-10
1.9158e-10
1.91366e-10
1.9111e-10
1.90815e-10
1.90486e-10
1.90127e-10
1.89741e-10
1.89332e-10
1.88904e-10
1.88461e-10
1.88005e-10
1.87539e-10
1.87067e-10
1.86592e-10
1.86116e-10
1.85642e-10
1.85173e-10
1.8471e-10
1.84257e-10
1.83816e-10
1.83387e-10
1.82975e-10
1.82579e-10
1.82202e-10
1.81846e-10
1.81512e-10
1.812e-10
1.80914e-10
1.80652e-10
1.80418e-10
1.8021e-10
1.80031e-10
1.79881e-10
1.7976e-10
1.79669e-10
1.79608e-10
1.79578e-10
1.79578e-10
1.79608e-10
1.79669e-10
1.7976e-10
1.79881e-10
1.80031e-10
1.8021e-10
1.80418e-10
1.80652e-10
1.80913e-10
1.812e-10
1.81511e-10
1.81846e-10
1.82202e-10
1.82579e-10
1.82974e-10
1.83387e-10
1.83815e-10
1.84257e-10
1.8471e-10
1.85172e-10
1.85642e-10
1.86116e-10
1.86592e-10
1.87067e-10
1.87539e-10
1.88004e-10
1.8846e-10
1.88904e-10
1.89332e-10
1.8974e-10
1.90126e-10
1.90486e-10
1.90815e-10
1.91109e-10
1.91366e-10
1.9158e-10
1.91747e-10
1.91863e-10
1.91924e-10
2.01884e-10
2.01822e-10
2.01703e-10
2.01531e-10
2.01312e-10
2.01048e-10
2.00746e-10
2.00409e-10
2.0004e-10
1.99644e-10
1.99225e-10
1.98786e-10
1.98331e-10
1.97863e-10
1.97385e-10
1.96901e-10
1.96413e-10
1.95925e-10
1.95438e-10
1.94956e-10
1.94482e-10
1.94017e-10
1.93563e-10
1.93124e-10
1.927e-10
1.92293e-10
1.91907e-10
1.91541e-10
1.91197e-10
1.90878e-10
1.90583e-10
1.90315e-10
1.90074e-10
1.89861e-10
1.89677e-10
1.89523e-10
1.89399e-10
1.89305e-10
1.89243e-10
1.89211e-10
1.89211e-10
1.89243e-10
1.89305e-10
1.89399e-10
1.89523e-10
1.89677e-10
1.89861e-10
1.90074e-10
1.90315e-10
1.90583e-10
1.90878e-10
1.91197e-10
1.9154e-10
1.91906e-10
1.92293e-10
1.92699e-10
1.93123e-10
1.93563e-10
1.94016e-10
1.94481e-10
1.94956e-10
1.95438e-10
1.95924e-10
1.96413e-10
1.969e-10
1.97385e-10
1.97862e-10
1.98331e-10
1.98786e-10
1.99225e-10
1.99644e-10
2.0004e-10
2.00408e-10
2.00746e-10
2.01048e-10
2.01311e-10
2.01531e-10
2.01702e-10
2.01821e-10
2.01883e-10
2.1208e-10
2.12017e-10
2.11895e-10
2.11719e-10
2.11494e-10
2.11224e-10
2.10914e-10
2.10568e-10
2.1019e-10
2.09784e-10
2.09354e-10
2.08904e-10
2.08437e-10
2.07957e-10
2.07467e-10
2.0697e-10
2.06469e-10
2.05968e-10
2.05469e-10
2.04975e-10
2.04488e-10
2.0401e-10
2.03545e-10
2.03094e-10
2.02659e-10
2.02242e-10
2.01845e-10
2.01469e-10
2.01117e-10
2.00789e-10
2.00486e-10
2.00211e-10
1.99964e-10
1.99745e-10
1.99556e-10
1.99398e-10
1.9927e-10
1.99174e-10
1.9911e-10
1.99078e-10
1.99078e-10
1.9911e-10
1.99174e-10
1.9927e-10
1.99398e-10
1.99556e-10
1.99745e-10
1.99963e-10
2.00211e-10
2.00486e-10
2.00788e-10
2.01117e-10
2.01469e-10
2.01845e-10
2.02242e-10
2.02659e-10
2.03094e-10
2.03545e-10
2.0401e-10
2.04487e-10
2.04974e-10
2.05469e-10
2.05968e-10
2.06469e-10
2.06969e-10
2.07466e-10
2.07956e-10
2.08437e-10
2.08903e-10
2.09354e-10
2.09784e-10
2.10189e-10
2.10567e-10
2.10914e-10
2.11224e-10
2.11493e-10
2.11719e-10
2.11894e-10
2.12017e-10
2.1208e-10
2.2252e-10
2.22455e-10
2.2233e-10
2.2215e-10
2.21919e-10
2.21642e-10
2.21325e-10
2.2097e-10
2.20582e-10
2.20166e-10
2.19725e-10
2.19263e-10
2.18785e-10
2.18292e-10
2.1779e-10
2.1728e-10
2.16767e-10
2.16253e-10
2.15741e-10
2.15234e-10
2.14734e-10
2.14244e-10
2.13767e-10
2.13304e-10
2.12858e-10
2.1243e-10
2.12022e-10
2.11637e-10
2.11275e-10
2.10939e-10
2.10629e-10
2.10346e-10
2.10092e-10
2.09868e-10
2.09674e-10
2.09511e-10
2.09381e-10
2.09282e-10
2.09216e-10
2.09183e-10
2.09183e-10
2.09216e-10
2.09282e-10
2.09381e-10
2.09511e-10
2.09674e-10
2.09868e-10
2.10092e-10
2.10346e-10
2.10628e-10
2.10939e-10
2.11275e-10
2.11637e-10
2.12022e-10
2.1243e-10
2.12857e-10
2.13304e-10
2.13767e-10
2.14244e-10
2.14734e-10
2.15233e-10
2.1574e-10
2.16252e-10
2.16766e-10
2.1728e-10
2.17789e-10
2.18292e-10
2.18784e-10
2.19263e-10
2.19725e-10
2.20166e-10
2.20582e-10
2.20969e-10
2.21324e-10
2.21642e-10
2.21919e-10
2.22149e-10
2.2233e-10
2.22455e-10
2.2252e-10
2.3321e-10
2.33143e-10
2.33015e-10
2.3283e-10
2.32593e-10
2.3231e-10
2.31984e-10
2.3162e-10
2.31223e-10
2.30796e-10
2.30344e-10
2.29871e-10
2.2938e-10
2.28875e-10
2.2836e-10
2.27837e-10
2.27311e-10
2.26784e-10
2.26259e-10
2.25739e-10
2.25226e-10
2.24724e-10
2.24234e-10
2.2376e-10
2.23302e-10
2.22863e-10
2.22445e-10
2.2205e-10
2.21679e-10
2.21334e-10
2.21015e-10
2.20725e-10
2.20465e-10
2.20235e-10
2.20036e-10
2.19869e-10
2.19735e-10
2.19634e-10
2.19567e-10
2.19533e-10
2.19533e-10
2.19566e-10
2.19634e-10
2.19735e-10
2.19869e-10
2.20036e-10
2.20235e-10
2.20465e-10
2.20725e-10
2.21015e-10
2.21333e-10
2.21679e-10
2.2205e-10
2.22445e-10
2.22863e-10
2.23302e-10
2.23759e-10
2.24234e-10
2.24724e-10
2.25226e-10
2.25738e-10
2.26258e-10
2.26783e-10
2.27311e-10
2.27837e-10
2.28359e-10
2.28875e-10
2.2938e-10
2.29871e-10
2.30344e-10
2.30796e-10
2.31223e-10
2.3162e-10
2.31984e-10
2.3231e-10
2.32593e-10
2.3283e-10
2.33014e-10
2.33143e-10
2.33209e-10
2.44155e-10
2.44086e-10
2.43955e-10
2.43766e-10
2.43523e-10
2.43233e-10
2.42899e-10
2.42526e-10
2.42119e-10
2.41681e-10
2.41218e-10
2.40733e-10
2.4023e-10
2.39712e-10
2.39184e-10
2.38648e-10
2.38108e-10
2.37568e-10
2.37029e-10
2.36496e-10
2.35971e-10
2.35456e-10
2.34954e-10
2.34467e-10
2.33998e-10
2.33548e-10
2.33119e-10
2.32714e-10
2.32333e-10
2.31979e-10
2.31653e-10
2.31355e-10
2.31088e-10
2.30852e-10
2.30648e-10
2.30477e-10
2.3034e-10
2.30236e-10
2.30167e-10
2.30132e-10
2.30132e-10
2.30167e-10
2.30236e-10
2.3034e-10
2.30477e-10
2.30648e-10
2.30852e-10
2.31088e-10
2.31355e-10
2.31652e-10
2.31979e-10
2.32333e-10
2.32713e-10
2.33119e-10
2.33547e-10
2.33997e-10
2.34467e-10
2.34954e-10
2.35456e-10
2.35971e-10
2.36496e-10
2.37029e-10
2.37567e-10
2.38108e-10
2.38647e-10
2.39183e-10