/*--------------------------------*- C++ -*----------------------------------*\
  =========                 |
  \\      /  F ield         | OpenFOAM: The Open Source CFD Toolbox
   \\    /   O peration     | Website:  https://openfoam.org
    \\  /    A nd           | Version:  11
     \\/     M anipulation  |
\*---------------------------------------------------------------------------*/
FoamFile
{
    format      ascii;
    class       volScalarField;
    location    "100";
    object      C;
}
// * * * * * * * * * * * * * * * * * * * * * * * * * * * * * * * * * * * * * //

dimensions      [0 0 0 1 0 0 0];

internalField   nonuniform List<scalar> 
440320
(
-2.06237e-311
-4.40145e-312
-1.42544e-312
2.03434e-311
-8.15048e-312
-1.37766e-311
9.30753e-312
1.8423e-311
3.68035e-312
-1.81956e-311
-5.86301e-312
2.95485e-311
2.71354e-311
1.1499e-311
1.71358e-311
-1.26561e-311
-1.48232e-311
9.43128e-312
2.48781e-311
2.93363e-311
1.63425e-311
2.6981e-311
1.39102e-311
1.8374e-311
3.87105e-311
4.23196e-311
4.60477e-311
3.18758e-311
1.13704e-311
1.77289e-311
-3.87273e-312
2.27159e-311
-5.06057e-312
6.17933e-312
-2.638e-312
2.15047e-312
1.81375e-312
1.64513e-312
-1.34919e-311
-5.22951e-312
-9.30274e-312
-1.09524e-311
-4.6526e-312
-2.76526e-311
-2.74405e-311
-1.80599e-311
6.96625e-312
2.55897e-311
4.35968e-311
3.75507e-311
-1.94113e-311
-5.06234e-312
-1.41807e-311
2.10028e-311
2.18211e-311
3.51687e-311
2.40203e-311
1.36085e-311
5.46172e-312
3.15412e-311
4.95607e-311
2.62439e-311
-3.80555e-312
-1.03982e-311
1.00085e-311
1.67473e-311
4.08418e-311
1.04109e-311
-2.42312e-311
-3.39255e-311
-5.21383e-311
-8.75553e-311
-9.70456e-311
-7.15414e-311
-5.05465e-311
-4.26674e-311
-3.91461e-311
-4.13439e-311
-6.38962e-311
-3.52064e-311
8.43583e-311
1.05936e-310
8.68047e-311
4.97984e-311
2.56206e-311
1.91859e-311
4.8782e-311
6.30374e-311
6.7738e-311
2.88335e-311
1.41468e-311
6.94772e-313
-3.40848e-311
-4.26548e-311
-6.103e-311
-5.12251e-311
-9.76199e-311
-8.86861e-311
-4.6827e-311
-1.29257e-311
-1.24987e-311
-2.42652e-311
-2.49724e-311
-3.92614e-311
-6.31756e-311
-9.133e-311
-1.02398e-310
-7.09812e-311
-6.56136e-311
-2.40179e-311
1.58116e-311
2.25751e-311
-1.67214e-311
-4.59707e-311
-8.02293e-311
-6.84623e-311
-7.98366e-311
-6.79355e-311
-2.79754e-311
1.81317e-312
-9.75804e-313
2.12033e-311
4.4738e-312
-5.83148e-312
-9.91271e-312
-3.37718e-311
-4.14915e-311
-3.13913e-311
-9.31355e-311
4.50166e-311
6.37048e-311
3.55463e-311
2.34303e-311
2.64034e-313
-2.13185e-311
1.25647e-311
1.0431e-311
3.98295e-312
-1.37846e-311
-4.71542e-311
-1.75866e-311
-8.59756e-312
4.9546e-311
3.49145e-311
1.77528e-311
-1.05589e-311
-5.83455e-311
-7.77194e-311
-7.03326e-311
-4.90312e-312
3.81769e-311
-1.37573e-311
-3.44667e-311
-6.88559e-311
-6.6861e-311
-3.56895e-311
9.7666e-312
8.44035e-311
7.05974e-311
9.10694e-311
-3.35981e-311
2.91405e-311
-1.6509e-311
-5.81124e-311
-5.90729e-311
-4.06723e-311
-5.22301e-311
-7.4726e-311
-3.04993e-311
2.16755e-311
2.87238e-312
2.44991e-311
7.07265e-311
8.47084e-311
8.14668e-311
5.95684e-311
6.64274e-311
1.3763e-312
-6.04458e-311
1.18746e-311
7.22201e-311
6.10376e-311
2.75443e-311
-5.06618e-313
-3.17436e-311
-7.29471e-311
-8.35586e-311
-1.21965e-310
-1.02008e-310
-4.58885e-311
2.18941e-311
3.16547e-311
-8.475e-312
-1.42105e-312
-2.20314e-312
1.55771e-311
1.2859e-311
-1.8422e-311
-3.32096e-311
1.77781e-312
-7.17364e-311
-4.11902e-311
-4.8197e-311
4.07497e-311
-1.46483e-311
-5.64364e-311
-5.01e-311
-5.79787e-311
-1.05431e-310
-7.65928e-311
2.34871e-311
2.37709e-311
3.32631e-312
-6.05547e-311
-9.77239e-311
-6.68709e-311
4.77841e-312
2.49504e-311
4.31303e-311
1.76986e-311
3.21001e-311
2.37711e-311
7.92188e-312
5.54664e-311
7.82618e-312
-1.11847e-311
-4.55934e-311
-8.09983e-311
-5.65094e-311
-4.32766e-312
3.88191e-311
3.30874e-311
6.57994e-311
1.04795e-310
7.73246e-311
5.37498e-311
-4.25682e-311
-3.02801e-311
-5.75632e-311
-2.70016e-311
-3.29331e-310
-1.71225e-310
-2.42175e-310
-2.80674e-310
-1.03855e-310
-8.01371e-312
-1.64839e-311
-1.47686e-311
-6.32242e-313
-2.62381e-311
-1.95458e-311
4.02723e-311
8.05278e-311
1.14493e-310
1.16554e-310
1.28144e-310
1.1802e-310
1.02207e-310
5.42667e-311
6.57674e-311
2.1537e-311
8.69558e-311
7.42346e-311
-1.22688e-311
-1.21449e-311
4.78756e-312
-6.60207e-312
-4.85056e-311
-7.12633e-311
-7.51895e-311
-3.74684e-311
1.49398e-311
5.35386e-311
5.93649e-311
1.11655e-311
1.17432e-311
2.36315e-312
5.74274e-312
-9.30461e-312
-6.9978e-312
-9.82761e-311
-7.77257e-311
-6.20042e-311
-9.29644e-312
-4.79725e-311
-7.14432e-311
2.31954e-311
8.81287e-311
7.23207e-311
-1.44637e-311
-6.25047e-312
3.46789e-311
5.25284e-311
-2.37271e-311
-8.88499e-311
-4.48303e-311
4.77445e-311
5.54757e-311
1.09965e-310
1.37949e-310
1.542e-310
1.49587e-310
6.46462e-311
3.59199e-311
4.63423e-312
1.0585e-311
2.05218e-312
-4.1563e-311
-2.08917e-311
5.82111e-311
8.88546e-311
9.72305e-311
2.51594e-310
3.36113e-310
3.20111e-310
2.49219e-310
1.8778e-311
-6.8212e-311
-2.73547e-310
-3.50526e-310
-1.79485e-309
-5.68036e-309
-2.34237e-309
-1.23415e-309
-5.3944e-310
-2.09581e-310
-1.99954e-311
1.0513e-310
6.72389e-311
1.69662e-311
3.00129e-311
1.70308e-311
-1.94636e-311
6.11293e-311
1.2475e-310
1.08146e-310
1.26775e-310
1.08623e-310
8.73203e-311
8.6685e-311
-4.68465e-312
4.00787e-311
7.93987e-311
-8.30151e-312
-4.50415e-311
-2.91856e-311
-1.60887e-311
6.25779e-312
-1.862e-311
-4.56055e-311
-2.80511e-311
6.93829e-312
6.37576e-311
1.01349e-310
8.34625e-311
-2.97066e-311
-1.12558e-310
-1.34161e-310
-6.43415e-311
-2.26547e-311
-6.73835e-311
-8.78832e-311
-3.72495e-311
-4.61308e-311
-1.81133e-311
-1.28895e-311
-5.48308e-312
1.16059e-310
1.18704e-310
2.58034e-311
-6.32628e-311
-3.2165e-311
5.66044e-311
7.35868e-311
7.26253e-311
4.11941e-311
8.97954e-311
7.92574e-311
1.09767e-310
1.15035e-310
4.21852e-311
8.82065e-311
7.33618e-311
5.92936e-311
2.6826e-311
4.86602e-311
1.18957e-310
2.083e-310
3.30839e-310
3.31688e-310
3.14718e-310
3.56712e-310
5.82365e-310
1.09636e-309
1.92646e-309
4.06137e-309
9.24289e-310
1.46769e-310
-1.36813e-310
5.58693e-310
9.66705e-309
4.36713e-310
-5.38977e-309
-2.74103e-309
-1.42922e-309
-7.66377e-310
-3.04935e-310
-6.30641e-311
4.80513e-311
8.42886e-311
8.50453e-311
5.73951e-311
-3.94222e-311
7.09263e-312
1.05906e-310
1.12415e-310
1.23636e-310
1.44541e-310
1.40365e-310
9.96772e-311
4.80352e-311
2.22972e-311
6.17415e-311
2.67396e-311
-3.42888e-311
-1.2783e-311
-2.09038e-311
-5.48526e-311
-7.3742e-311
-4.84906e-311
1.50107e-311
2.3812e-311
9.7018e-313
5.73942e-311
1.04436e-310
1.34412e-311
-1.25457e-311
-7.98106e-311
-1.0209e-310
-8.36207e-311
-4.48688e-311
-4.62784e-311
-4.70369e-311
-7.54686e-311
-6.26939e-311
-1.24728e-310
-1.68315e-310
-1.10824e-310
-3.30719e-311
-3.35157e-311
-1.11248e-310
-7.05477e-311
5.70586e-311
1.31974e-310
1.68645e-310
1.21848e-310
8.02823e-311
7.60279e-311
2.08473e-311
-3.13214e-311
-1.47625e-310
-1.77492e-310
-1.76273e-310
-2.24543e-310
-4.84698e-310
-7.84379e-310
-1.17923e-309
1.7526e-309
4.32792e-309
3.73597e-309
1.17795e-309
1.23365e-309
2.00299e-309
3.25225e-309
4.69607e-309
8.55008e-309
5.30219e-309
-4.6278e-310
-4.90666e-309
1.23784e-310
-6.63347e-310
-1.46651e-309
-4.72446e-309
-8.33565e-309
-4.25328e-309
-2.14212e-309
-9.71564e-310
-4.17863e-310
-5.51587e-311
9.83103e-311
8.32697e-311
1.19205e-310
5.89964e-311
3.98608e-311
8.2787e-311
1.38205e-310
1.63156e-310
1.65767e-310
1.41677e-310
1.62078e-310
1.45111e-310
9.41842e-311
9.92497e-312
-2.8958e-311
-6.48126e-311
-1.87344e-311
9.67042e-312
-7.60334e-312
-6.74204e-311
-6.83223e-311
3.20553e-311
1.20162e-310
8.84513e-311
8.92062e-311
5.48671e-311
2.29428e-311
2.70029e-311
2.33022e-311
-8.25693e-311
-8.44626e-311
-1.14311e-310
-9.97955e-311
-6.54532e-311
-1.05499e-310
-2.41425e-310
-2.4693e-310
-2.07524e-310
-1.3294e-310
-7.91276e-311
-5.01545e-311
-7.21452e-311
5.37981e-311
2.1214e-310
3.85949e-310
6.53267e-310
9.03173e-310
2.09618e-310
-1.08549e-310
-3.08762e-310
-5.59714e-310
-7.18478e-310
-3.15833e-310
-2.98298e-310
-6.87223e-310
-2.74644e-309
-4.00432e-310
6.68828e-310
7.95658e-310
3.90997e-309
3.73306e-309
1.93441e-309
2.12989e-309
3.92734e-309
4.5863e-309
3.91351e-309
8.08304e-309
3.98939e-309
6.1446e-309
7.90083e-309
1.74607e-308
-1.29337e-308
-3.7957e-309
-1.15736e-308
-1.01412e-308
-1.05653e-308
-4.79679e-309
-2.19468e-309
-9.64105e-310
-3.30861e-310
1.70502e-311
8.98198e-312
2.77713e-311
3.14737e-311
-1.25705e-311
4.52823e-311
8.10125e-311
8.15143e-311
4.48612e-311
9.01826e-311
1.19149e-310
2.48585e-310
1.73282e-310
6.95123e-311
-9.80711e-312
-9.67322e-312
-6.8598e-311
-7.18234e-311
5.94257e-312
-1.70369e-311
-6.25698e-311
-3.8355e-311
5.0652e-311
8.50104e-311
9.80831e-311
4.19536e-311
1.30091e-311
-8.23912e-312
2.07558e-311
-8.87743e-311
-1.66369e-310
-2.08657e-310
-1.76044e-310
-1.29379e-310
-1.6145e-310
-6.64725e-310
-3.70807e-310
-2.07286e-310
-1.32564e-310
-1.18632e-311
7.00032e-311
8.30531e-311
3.00315e-310
5.9087e-310
1.22567e-309
2.41275e-309
4.7263e-309
1.42822e-309
-1.44945e-311
-5.46753e-310
-9.80024e-310
-1.29494e-309
-1.08343e-309
-8.70443e-310
-1.36531e-309
-2.29213e-309
-3.35525e-310
1.17128e-309
2.50327e-309
3.42363e-309
3.59355e-309
1.04264e-309
1.63865e-309
6.20762e-309
6.04337e-309
4.20533e-309
8.92708e-309
7.16973e-309
6.86813e-309
1.92314e-308
2.22638e-308
-1.89959e-308
-1.31238e-308
-1.79375e-308
-1.33246e-308
-1.35093e-308
-3.12116e-309
-2.25622e-309
-1.03695e-309
-6.43945e-310
-2.47672e-310
-1.54652e-310
-1.27861e-310
-9.39894e-311
-4.25831e-311
4.31944e-311
1.26363e-310
-3.46138e-310
-2.61412e-309
-1.00935e-309
-3.92046e-310
4.1246e-312
9.06125e-311
1.31642e-310
9.20381e-311
7.09161e-311
-5.22494e-311
-6.72337e-311
-9.26284e-312
-1.04699e-311
-4.78303e-311
-4.76493e-311
3.74365e-311
6.81745e-312
-4.22384e-313
1.65836e-311
3.76038e-311
4.56348e-311
3.58751e-311
-8.95483e-311
-1.54754e-310
-8.40415e-311
1.41814e-310
1.40151e-311
2.62482e-309
-4.79649e-310
-7.79574e-310
-4.18093e-310
-2.33723e-310
-1.1288e-311
1.4778e-310
3.21657e-310
7.12587e-310
1.18134e-309
1.63258e-309
5.35907e-310
3.82777e-309
1.95657e-309
4.73886e-310
-2.30267e-310
-5.75242e-310
-9.29531e-310
1.49383e-309
1.1112e-309
-1.2059e-309
-5.03934e-309
-1.6718e-309
-1.57364e-309
1.88355e-309
1.03131e-309
4.24797e-309
3.95135e-309
5.38227e-309
9.39391e-309
1.17523e-308
9.62441e-309
1.03692e-308
6.59349e-309
1.46858e-308
3.17842e-308
4.05788e-308
-1.62576e-308
-1.98548e-308
-1.63486e-308
-9.18756e-309
-1.02002e-308
-5.34529e-309
-2.62919e-309
-1.29493e-309
-1.50005e-309
-4.17406e-309
-1.60245e-309
-7.58727e-310
-3.37455e-310
-2.90216e-311
4.32995e-310
6.40535e-310
-8.16835e-311
-1.60853e-309
-1.33485e-309
-8.17314e-310
-3.80262e-310
-1.23107e-310
-4.97758e-311
-2.90599e-311
1.18035e-311
-2.54774e-311
2.39225e-312
4.54554e-311
1.23691e-311
2.92612e-311
-2.6356e-311
2.88436e-312
-8.09656e-311
-1.11419e-310
-4.4235e-311
3.89944e-311
1.0821e-310
1.0431e-311
-1.27427e-310
-3.70658e-310
4.30987e-311
7.24527e-311
-1.69758e-309
4.4107e-309
9.3942e-310
1.86867e-309
-3.73219e-310
-5.62218e-310
-2.87808e-310
2.63731e-310
8.57019e-310
1.65559e-309
2.31504e-309
4.3257e-309
1.55415e-309
3.39678e-309
2.84638e-309
3.34898e-309
5.2303e-310
5.00603e-310
1.57577e-309
-8.88516e-310
-2.28901e-309
-4.97183e-309
-7.69628e-309
-3.24134e-309
-1.05445e-309
2.24822e-309
3.60079e-309
5.80736e-309
6.15203e-309
8.32331e-309
1.36738e-308
1.25157e-308
1.28168e-308
1.29913e-308
1.24048e-308
1.645e-308
3.62727e-308
3.75817e-308
-1.07673e-308
-1.30793e-308
-1.34622e-308
-1.05463e-308
-1.00067e-308
-9.26246e-309
2.33151e-310
-1.23347e-309
-2.44853e-309
-3.99488e-309
-3.26115e-309
-4.85684e-309
-1.79799e-309
-5.3709e-310
6.42493e-310
9.57259e-310
1.05152e-310
1.15568e-309
-2.58144e-309
1.22174e-309
2.4461e-310
5.2342e-311
5.11458e-311
1.71012e-311
1.45137e-310
1.13766e-310
1.14155e-310
7.25573e-311
5.75042e-311
-8.69322e-311
-2.40192e-309
-6.34085e-310
-4.67778e-310
-3.72987e-310
-2.19237e-310
-1.03751e-310
1.8056e-311
-4.5992e-311
-1.57347e-310
-1.06736e-310
2.76008e-309
1.07296e-309
-5.48867e-312
4.00029e-309
1.62171e-309
3.17573e-310
-4.07976e-309
-5.05774e-309
-4.79126e-309
-9.05371e-310
-1.5378e-309
-1.13619e-310
2.85435e-309
3.45308e-309
2.0017e-309
2.90273e-309
2.43209e-309
2.24676e-309
-1.42204e-309
9.83105e-310
1.98876e-309
-2.24931e-309
-2.23276e-309
-5.82983e-309
-6.31332e-309
-2.93799e-309
1.20819e-309
1.71914e-310
4.75997e-309
6.56195e-309
6.96563e-309
8.33171e-309
1.14077e-308
8.44042e-309
1.29027e-308
1.58038e-308
1.65926e-308
1.88768e-308
3.41799e-308
3.81674e-308
-9.70576e-309
-8.41126e-309
-8.58298e-309
-9.10432e-309
-1.15318e-308
-6.17733e-309
-1.03905e-309
-1.29353e-309
-2.99763e-309
-4.59117e-309
-7.88142e-309
-7.92005e-309
-7.71959e-310
-7.93147e-310
-4.62485e-310
-2.91191e-309
-4.11159e-309
-1.4989e-309
-2.08814e-309
-3.68063e-311
1.80687e-310
3.3763e-310
3.015e-309
1.45359e-309
3.26213e-309
1.16841e-309
5.72552e-310
2.96854e-310
1.49001e-310
-2.23548e-310
-1.96981e-309
-1.16918e-309
-1.14704e-309
-2.87538e-309
-6.06298e-310
-9.6415e-311
-3.01424e-311
3.32598e-311
2.09463e-310
1.66914e-310
2.17517e-309
2.55273e-309
4.185e-309
4.45577e-309
4.77452e-309
4.55787e-310
-1.78e-309
-5.61897e-309
-7.13372e-309
-1.22333e-309
1.03017e-309
6.54058e-310
2.24483e-309
4.7799e-310
1.88494e-309
2.35947e-309
1.53559e-309
1.46868e-309
-4.12841e-310
8.31407e-310
2.27917e-309
-1.71444e-309
-4.44227e-309
-4.88254e-309
-1.83809e-309
-9.29761e-310
-1.17588e-309
5.34521e-310
3.98216e-309
5.33115e-309
5.62684e-309
3.3155e-309
8.944e-309
1.03156e-308
1.536e-308
2.40667e-308
2.537e-308
3.70051e-308
4.97071e-308
5.6641e-308
-1.5547e-308
-5.03722e-309
-1.69105e-309
3.32572e-309
2.89746e-309
-1.05719e-310
4.10885e-309
3.22902e-310
-2.24008e-309
-4.57482e-309
-6.96474e-309
-4.56256e-309
-5.14984e-309
-2.72535e-309
-2.34301e-309
-6.08275e-309
-4.88235e-309
-3.40263e-309
-2.53125e-309
-8.84094e-310
-2.42261e-310
3.15834e-310
2.4484e-309
2.13607e-309
3.08228e-309
2.13067e-309
3.72426e-309
1.29538e-309
4.38949e-310
-2.24959e-310
-1.73406e-309
1.00897e-309
-5.87218e-310
9.4358e-310
2.44348e-309
5.2025e-310
1.34496e-310
2.3647e-310
6.63083e-310
9.50266e-310
2.2853e-309
4.00655e-309
5.39736e-309
5.83497e-309
5.07406e-309
2.66705e-309
-2.48817e-309
-3.54111e-309
-5.50712e-309
-8.26295e-310
2.20624e-309
4.61165e-310
1.81559e-309
1.67843e-309
4.68161e-309
5.0586e-309
2.03471e-309
2.07945e-309
2.04603e-309
1.07045e-310
-5.88163e-310
-2.1397e-309
-4.66162e-309
-9.06802e-310
7.78273e-310
-2.87095e-309
-4.32523e-309
-4.03655e-309
-2.42415e-309
-3.99743e-310
3.22105e-309
2.31135e-309
2.95472e-309
9.45206e-309
1.534e-308
2.20087e-308
2.61699e-308
3.34555e-308
4.007e-308
4.21887e-308
3.43106e-310
1.47367e-309
2.48982e-309
4.20552e-309
3.51277e-309
-1.86363e-310
7.08278e-309
1.70446e-309
-2.12536e-309
-5.13936e-309
-7.11007e-309
-2.9568e-309
-1.83016e-309
-3.57822e-309
-4.33826e-309
-6.15777e-309
-3.39197e-309
-7.32686e-309
-6.43426e-309
1.03054e-310
-4.54379e-310
-2.35584e-309
1.46615e-309
2.22814e-309
3.10618e-309
3.12615e-309
5.96553e-309
2.52184e-309
9.56911e-310
1.29721e-310
-1.34489e-309
2.66057e-310
4.27175e-310
4.13656e-309
5.10091e-309
1.46259e-309
5.41482e-310
6.70142e-310
1.17214e-309
1.8472e-309
1.16808e-309
6.04915e-309
9.61558e-309
7.22567e-309
5.4174e-309
2.10624e-309
-2.87821e-309
-4.88934e-309
-4.99853e-309
-1.20724e-309
2.34201e-309
-8.57673e-310
-1.60077e-309
-5.70443e-310
4.30527e-309
5.29278e-309
5.30381e-309
5.07611e-309
1.41722e-309
1.48575e-309
7.98008e-311
-4.23456e-309
-5.24609e-309
-8.22598e-310
-4.37879e-309
-5.10519e-309
-4.09337e-309
-3.85725e-309
9.19284e-310
2.29868e-309
1.22654e-309
-2.70111e-310
-2.0868e-309
7.09356e-309
1.39807e-308
1.94171e-308
2.01671e-308
2.87057e-308
3.23842e-308
3.27484e-308
5.61672e-309
1.34895e-309
3.90327e-309
7.62039e-310
2.88768e-309
-1.13974e-309
4.52143e-309
1.74433e-309
-2.3432e-309
-5.52734e-309
-8.13147e-309
-8.72544e-309
-2.06166e-309
-4.67796e-309
-8.55812e-309
-7.16453e-309
-5.43169e-309
-7.2442e-309
-6.78618e-309
-2.44168e-309
-3.94165e-309
-2.41955e-309
1.05598e-309
2.14426e-309
3.63162e-309
6.4549e-309
5.84607e-309
3.21541e-309
1.37892e-309
1.15548e-310
-1.36854e-309
-2.16724e-309
5.39988e-310
3.5522e-309
4.61713e-309
2.28207e-309
1.47293e-309
3.97156e-309
2.59851e-309
3.74433e-309
6.53532e-309
7.61166e-309
1.02097e-308
9.07238e-309
9.00955e-309
5.06739e-309
-9.2682e-311
-4.29769e-309
-4.0746e-309
-1.25184e-309
2.35448e-309
-1.3737e-309
-1.38631e-309
5.713e-310
4.26539e-309
4.60581e-309
3.29491e-309
7.78914e-309
3.25411e-309
3.24286e-309
1.54299e-309
-2.31324e-309
-4.75988e-309
-6.14225e-310
-4.96556e-309
-6.90332e-309
-7.30127e-309
-4.97456e-309
1.12342e-309
-3.38823e-310
-1.81649e-309
-2.81349e-309
-2.40908e-309
4.12071e-309
1.16062e-308
1.62603e-308
1.9947e-308
2.36814e-308
2.57683e-308
2.65644e-308
8.13774e-309
6.02557e-309
7.7415e-310
3.83629e-309
5.28201e-309
4.46016e-309
9.77757e-309
2.9451e-309
-2.72791e-309
-7.00038e-309
-1.28854e-308
-1.30542e-308
-3.39054e-309
-2.39742e-309
-7.43139e-309
-7.1318e-309
-3.53223e-309
-4.12057e-309
-6.25343e-309
-4.17315e-309
-4.09878e-309
-1.85266e-309
3.53343e-309
3.36994e-309
7.23488e-309
9.76032e-309
9.33891e-309
4.47345e-309
1.96545e-309
4.20509e-310
-8.99565e-310
-1.68644e-309
-5.93567e-311
5.67969e-310
6.04659e-309
7.0643e-310
1.55993e-309
3.89123e-309
3.85324e-309
5.73032e-309
1.00452e-308
6.77782e-309
1.31701e-308
1.07422e-308
9.5926e-309
5.38563e-309
2.85964e-310
-8.27067e-310
-2.80504e-309
-9.11464e-310
2.91177e-309
-5.40606e-310
-1.72741e-310
1.70847e-309
3.42747e-309
6.34543e-309
6.92269e-309
1.00534e-308
4.54306e-309
3.94721e-309
-4.85768e-310
-3.9379e-309
-4.2811e-309
-1.31129e-309
-8.31592e-309
-8.22342e-309
-6.3272e-309
-3.47986e-309
-1.76992e-309
1.24653e-309
-2.18737e-309
-1.14439e-309
-5.97027e-309
1.97294e-309
1.36292e-308
1.5727e-308
2.0326e-308
2.65861e-308
2.28224e-308
2.16683e-308
1.46267e-308
1.05358e-308
1.35589e-309
2.39818e-309
1.16811e-308
9.30635e-309
1.34697e-308
5.37878e-309
-1.6756e-309
-5.89891e-309
-8.30653e-309
-1.44299e-308
-7.23381e-309
-2.0352e-309
-3.66904e-309
-6.51424e-309
-5.24103e-309
-3.28553e-309
-6.76016e-309
-8.77012e-309
-7.77982e-309
-2.79397e-309
-5.89556e-310
3.10376e-309
6.9841e-309
9.60715e-309
1.17609e-308
5.88233e-309
2.40794e-309
5.75941e-310
-1.07597e-309
-4.31553e-309
5.24723e-310
-2.10089e-309
3.80679e-309
1.60183e-309
-7.12339e-310
4.21619e-309
7.7622e-309
7.65117e-309
9.41402e-309
5.6793e-309
1.23339e-308
1.1981e-308
1.06487e-308
8.85162e-309
2.43858e-309
2.97258e-309
1.23653e-309
1.32499e-310
4.45832e-309
6.64442e-310
2.04262e-309
6.45648e-309
8.20679e-309
7.52133e-309
9.15573e-309
8.68954e-309
2.2287e-309
6.25665e-310
-4.59626e-309
-4.68753e-309
-5.15576e-309
-5.81758e-309
-1.2424e-308
-1.37142e-308
-1.2541e-308
-6.94796e-309
-3.54807e-309
1.79281e-309
-1.22062e-309
-8.9308e-309
-7.21371e-309
-3.95592e-309
8.43665e-309
1.5746e-308
2.63569e-308
2.90719e-308
2.08225e-308
1.70774e-308
2.88148e-308
1.9658e-308
1.26704e-308
9.56947e-309
7.24509e-309
1.00037e-308
7.33793e-309
5.91673e-309
-2.91958e-309
-4.01927e-309
-5.08524e-309
-1.17548e-308
-9.54858e-309
-8.97784e-309
-6.56958e-309
-6.75404e-309
-5.73518e-309
-3.76857e-309
-1.10372e-308
-1.2696e-308
-8.82173e-309
-4.03707e-309
-1.14427e-309
2.49073e-309
6.543e-309
9.6473e-309
1.34292e-308
7.16874e-309
2.98457e-309
4.77447e-310
-1.776e-309
-6.81113e-309
-2.2265e-309
-2.26774e-309
2.38227e-309
1.75301e-309
3.81832e-312
4.3006e-309
5.63681e-309
8.7205e-309
9.37435e-309
7.03306e-309
1.15537e-308
1.24793e-308
1.17894e-308
1.17262e-308
4.61637e-309
3.1092e-309
2.39331e-309
2.51785e-309
6.40008e-309
1.5127e-310
4.1476e-309
6.94594e-309
8.22157e-309
7.54731e-309
7.64235e-309
7.81062e-309
5.29347e-309
-2.1052e-310
-4.14539e-309
-5.02849e-309
-6.14118e-309
-8.40178e-309
-1.31473e-308
-1.50088e-308
-1.69952e-308
-1.07452e-308
-6.87197e-309
-3.61955e-309
-6.0756e-309
-1.48673e-308
-1.39919e-308
-8.63418e-309
4.88932e-309
1.32668e-308
2.29087e-308
1.72444e-308
1.17611e-308
9.88541e-309
9.35476e-309
1.59917e-308
1.13289e-308
1.37689e-308
1.25122e-308
1.22694e-308
9.78574e-309
8.11397e-309
3.13611e-309
2.74774e-309
-2.02296e-309
-1.32033e-308
-1.09572e-308
-9.62376e-309
-7.34077e-309
-3.63154e-309
-2.0236e-309
-3.00964e-309
-9.81217e-309
-9.40614e-309
-9.88879e-309
-8.23647e-309
-2.92601e-309
-1.15067e-309
5.43022e-309
9.43455e-309
1.44421e-308
8.18609e-309
3.562e-309
4.12838e-310
-2.46769e-309
-8.60665e-309
-1.75522e-309
2.81974e-310
6.33159e-309
2.7939e-309
3.8669e-309
7.85288e-309
7.35417e-309
7.5981e-309
1.19843e-308
8.69433e-309
1.14524e-308
1.31532e-308
1.34691e-308
1.39105e-308
6.16674e-309
3.96443e-309
6.48876e-309
7.25587e-309
9.1019e-309
1.715e-309
8.21443e-309
7.8007e-309
8.09799e-309
7.90586e-309
8.52548e-309
7.10186e-309
4.53562e-309
3.67365e-310
-3.29666e-310
-2.31266e-309
-6.70183e-309
-1.01263e-308
-1.51146e-308
-1.99461e-308
-2.06198e-308
-1.32403e-308
-9.02711e-309
-7.46485e-309
-1.06399e-308
-2.01589e-308
-2.06002e-308
-1.53353e-308
-2.1958e-309
4.52881e-309
8.03147e-309
3.71443e-309
1.60368e-309
3.91588e-309
2.15766e-308
2.15137e-308
1.44553e-308
1.54033e-308
1.84654e-308
1.70811e-308
1.53388e-308
1.5123e-308
6.93026e-309
1.48113e-309
-7.61678e-309
-1.16458e-308
-1.05677e-308
-8.37718e-309
-4.3663e-309
-4.86203e-309
-3.73761e-309
-3.10633e-309
-9.45917e-309
-9.92472e-309
-1.05065e-308
-8.8345e-309
-4.65605e-309
-3.9862e-309
3.95537e-309
8.68771e-309
1.24544e-308
8.73642e-309
4.09552e-309
4.82555e-310
-2.52742e-309
-7.17279e-309
-1.00358e-309
-2.46695e-311
6.13319e-309
1.11349e-309
3.3968e-309
7.4031e-309
8.26012e-309
9.18765e-309
9.28598e-309
9.56414e-309
1.21292e-308
1.64986e-308
1.55125e-308
1.56811e-308
5.40808e-309
5.60862e-309
1.00551e-308
8.82225e-309
1.16801e-308
6.19386e-309
1.13524e-308
1.00296e-308
1.24099e-308
1.22551e-308
1.25189e-308
1.03878e-308
5.19183e-309
1.01401e-309
-8.5653e-310
-4.76734e-309
-1.10928e-308
-1.18654e-308
-1.60901e-308
-1.99714e-308
-2.27717e-308
-1.50899e-308
-1.1136e-308
-9.61037e-309
-1.31615e-308
-2.00181e-308
-2.1823e-308
-2.36022e-308
-1.7421e-308
-1.2173e-308
-1.42417e-310
-1.07974e-309
6.851e-309
1.2644e-308
3.2635e-308
3.02515e-308
2.79634e-308
2.91216e-308
3.07632e-308
1.90833e-308
1.7428e-308
1.01421e-308
7.39117e-309
8.90722e-310
-7.07512e-309
-1.10615e-308
-1.30658e-308
-7.79547e-309
-2.16803e-309
-4.39119e-309
-1.81638e-309
-2.62767e-309
-5.67438e-309
-6.70582e-309
-1.01217e-308
-1.14949e-308
-5.93914e-309
-4.1849e-309
2.53754e-309
7.74619e-309
1.09541e-308
8.72336e-309
5.0017e-309
9.30414e-310
-2.70596e-309
-6.43091e-309
-3.10643e-309
-5.27606e-311
8.57226e-309
2.24939e-309
3.1814e-309
6.56648e-309
5.94976e-309
9.69808e-309
7.88451e-309
1.01237e-308
1.2839e-308
1.64541e-308
1.69456e-308
1.57893e-308
1.06082e-308
7.94611e-309
1.06177e-308
1.21332e-308
8.99359e-309
6.15281e-309
1.10613e-308
1.18249e-308
1.61928e-308
1.67558e-308
1.62987e-308
1.09809e-308
6.24198e-309
4.24012e-309
-1.36605e-309
-5.96936e-309
-1.1075e-308
-1.32771e-308
-1.93679e-308
-2.00182e-308
-2.07404e-308
-1.51365e-308
-1.20132e-308
-1.10035e-308
-1.41065e-308
-1.96347e-308
-2.20485e-308
-2.40748e-308
-2.17981e-308
-2.41719e-308
-2.01439e-308
-1.27738e-308
-3.82618e-309
-5.44075e-309
3.29169e-308
2.93983e-308
3.81696e-308
3.37605e-308
3.87902e-308
2.66761e-308
2.0246e-308
1.25062e-308
6.43667e-309
-3.78887e-309
-7.31052e-309
-9.73447e-309
-1.01876e-308
-7.34776e-309
-3.2175e-309
-6.12599e-310
-2.40534e-309
-1.95884e-309
-3.65358e-309
-9.98545e-309
-1.03491e-308
-1.02365e-308
-6.63973e-309
-5.01875e-309
-1.36217e-309
6.56269e-309
1.02417e-308
1.19631e-308
9.47313e-309
4.94632e-309
-2.48468e-309
-6.49215e-309
-7.52176e-309
-4.08967e-309
3.8054e-309
-9.66143e-310
4.8656e-310
6.34339e-309
7.37249e-309
8.13033e-309
9.77188e-309
1.08839e-308
1.31829e-308
1.62773e-308
1.74787e-308
1.62063e-308
1.40663e-308
1.02478e-308
1.17795e-308
1.51177e-308
1.08424e-308
9.19769e-309
1.19924e-308
1.30778e-308
1.61764e-308
1.72603e-308
1.61309e-308
1.11143e-308
6.92855e-309
3.72466e-309
-1.29645e-309
-6.90657e-309
-1.374e-308
-1.42108e-308
-1.82534e-308
-1.98001e-308
-1.87726e-308
-1.42201e-308
-1.18976e-308
-1.1254e-308
-1.47029e-308
-2.36227e-308
-2.67719e-308
-2.43294e-308
-1.82825e-308
-2.15794e-308
-2.02629e-308
-2.58142e-308
-2.58358e-308
-2.30919e-308
3.75534e-308
3.81217e-308
4.1252e-308
4.14081e-308
4.03874e-308
3.18863e-308
2.40778e-308
1.95924e-308
7.91308e-309
-2.54127e-309
-1.01154e-308
-9.04007e-309
-4.99672e-309
-5.94092e-309
-3.41081e-309
-1.05727e-309
-1.92308e-309
-1.24181e-309
-5.02929e-309
-8.90548e-309
-7.2591e-309
-9.7069e-309
-7.11031e-309
-5.03762e-309
-1.1867e-309
5.79375e-309
1.03729e-308
1.44188e-308
1.01164e-308
5.30644e-309
1.20258e-310
-6.62891e-309
-1.07022e-308
-5.76156e-309
-1.95652e-309
-1.7864e-309
-1.92827e-309
3.73513e-309
1.03934e-308
9.91793e-309
1.10138e-308
1.15349e-308
1.31313e-308
1.57988e-308
1.75557e-308
1.64438e-308
1.42671e-308
1.15854e-308
1.25364e-308
1.45253e-308
9.59086e-309
1.10033e-308
1.25304e-308
1.38817e-308
1.39239e-308
1.68965e-308
1.30062e-308
1.12932e-308
9.8739e-309
3.59066e-309
-2.41967e-309
-1.09107e-308
-1.61947e-308
-1.53936e-308
-1.86513e-308
-2.34796e-308
-2.18796e-308
-1.4425e-308
-1.07751e-308
-8.03214e-309
-1.43051e-308
-2.1608e-308
-2.48131e-308
-2.57978e-308
-2.50023e-308
-2.88831e-308
-3.30455e-308
-4.01659e-308
-4.38425e-308
-4.0731e-308
2.90554e-308
2.86006e-308
3.68599e-308
3.93348e-308
3.54692e-308
3.41311e-308
2.86747e-308
2.50812e-308
1.07398e-308
3.41954e-309
-3.20998e-309
-7.52217e-309
-5.01642e-309
-4.48698e-309
-3.00008e-309
-1.32392e-309
4.93741e-310
-3.86545e-309
-6.50414e-309
-8.88372e-309
-1.11114e-308
-1.00465e-308
-7.50757e-309
-5.12439e-309
-1.02992e-309
5.47251e-309
1.01851e-308
1.3424e-308
1.06477e-308
5.5733e-309
-7.42404e-310
-7.0626e-309
-1.29961e-308
-7.36723e-309
-3.71809e-309
-2.94372e-309
-1.42309e-309
3.64461e-309
7.30955e-309
1.05316e-308
9.16732e-309
9.70193e-309
1.28619e-308
1.53728e-308
1.73402e-308
1.64673e-308
1.39167e-308
1.23522e-308
1.30204e-308
1.41006e-308
1.1685e-308
1.01779e-308
1.31576e-308
1.42668e-308
1.56559e-308
1.81861e-308
1.73956e-308
1.28748e-308
1.22959e-308
3.97326e-309
-2.54803e-309
-9.84445e-309
-1.42362e-308
-1.30046e-308
-2.15846e-308
-2.29771e-308
-2.09446e-308
-1.81312e-308
-1.15259e-308
-1.01546e-308
-1.40414e-308
-1.97853e-308
-2.27985e-308
-2.28552e-308
-2.16728e-308
-3.39954e-308
-3.78749e-308
-4.93274e-308
-5.40969e-308
-4.93282e-308
2.90491e-308
2.90332e-308
2.89575e-308
3.53085e-308
3.48181e-308
2.9973e-308
2.92244e-308
2.35535e-308
1.21651e-308
6.89382e-309
-2.2524e-309
-6.0934e-309
-1.24244e-309
-2.92824e-309
-2.34661e-309
-1.13877e-309
-1.03736e-309
-6.17857e-309
-1.07399e-308
-9.96911e-309
-1.05116e-308
-1.00924e-308
-7.81242e-309
-5.4687e-309
-1.50754e-309
4.48869e-309
6.90379e-309
1.22056e-308
1.0729e-308
8.07134e-309
-9.36604e-310
-7.27122e-309
-1.41859e-308
-8.65093e-309
-5.40226e-309
-6.09139e-309
-1.23357e-309
3.99098e-309
8.02962e-309
1.1335e-308
1.08981e-308
1.10751e-308
1.2936e-308
1.49126e-308
1.7484e-308
1.88383e-308
1.40356e-308
1.25082e-308
1.33319e-308
1.46209e-308
1.53426e-308
1.27865e-308
1.64992e-308
1.58375e-308
1.94647e-308
1.93794e-308
1.72506e-308
1.14417e-308
1.4473e-308
5.67109e-309
1.72696e-309
-6.83969e-309
-9.00858e-309
-1.14259e-308
-2.08784e-308
-2.55242e-308
-1.84924e-308
-1.71106e-308
-1.27423e-308
-1.51414e-308
-1.50611e-308
-2.16426e-308
-1.89884e-308
-1.54785e-308
-2.04585e-308
-2.52276e-308
-3.37433e-308
-3.54533e-308
-4.21309e-308
-4.15272e-308
2.68725e-308
2.6773e-308
2.90218e-308
3.06078e-308
2.65468e-308
2.82949e-308
2.45423e-308
2.32981e-308
1.72198e-308
6.72664e-309
-1.38635e-309
-5.39137e-309
-2.36247e-309
-2.59163e-309
-2.45248e-309
-1.94206e-309
-2.71508e-309
-7.37841e-309
-1.10576e-308
-1.37046e-308
-1.12655e-308
-1.31137e-308
-8.81174e-309
-8.79148e-309
-2.59294e-309
3.24164e-309
6.50893e-309
1.11921e-308
1.02627e-308
6.58891e-309
-1.53743e-309
-9.66383e-309
-1.28096e-308
-9.35236e-309
-6.54161e-309
-5.82251e-309
-1.40964e-309
3.43458e-309
5.85375e-309
1.20147e-308
1.47519e-308
1.50042e-308
1.56203e-308
1.20557e-308
1.64448e-308
1.53258e-308
1.36268e-308
1.25413e-308
1.32904e-308
1.44601e-308
1.28938e-308
1.39421e-308
1.89846e-308
1.73459e-308
2.19458e-308
1.77932e-308
1.69209e-308
1.07535e-308
1.57468e-308
6.31695e-309
-7.65835e-310
-5.37156e-309
-8.83984e-309
-1.31997e-308
-2.06628e-308
-2.37789e-308
-2.0157e-308
-1.62013e-308
-9.11287e-309
-1.23236e-308
-1.07563e-308
-1.47708e-308
-1.07327e-308
-1.32251e-308
-1.27879e-308
-1.73012e-308
-2.42675e-308
-2.0406e-308
-2.10353e-308
-2.7023e-308
2.2091e-308
2.42635e-308
2.69767e-308
2.83351e-308
2.57541e-308
2.19965e-308
2.39943e-308
1.85341e-308
1.63144e-308
1.16894e-308
3.62723e-309
-3.74385e-309
-3.25835e-309
-3.51938e-309
-6.3765e-309
-3.70149e-309
-3.92905e-309
-7.32689e-309
-1.08867e-308
-1.3882e-308
-1.51641e-308
-1.31258e-308
-9.58612e-309
-8.76466e-309
-4.21042e-309
-1.03028e-309
2.41127e-309
8.78385e-309
9.02258e-309
4.91784e-309
-1.76828e-309
-8.41858e-309
-1.12986e-308
-9.31366e-309
-7.29146e-309
-6.44892e-309
-4.36793e-309
2.28219e-309
6.45886e-309
1.22368e-308
1.70081e-308
1.27541e-308
1.69995e-308
1.20836e-308
1.51992e-308
1.46699e-308
1.29064e-308
1.25407e-308
1.30171e-308
1.38736e-308
1.36023e-308
1.23735e-308
1.8206e-308
2.15363e-308
2.52216e-308
2.31018e-308
2.08792e-308
1.40346e-308
1.47165e-308
7.80626e-309
1.84431e-309
-3.77943e-309
-8.49464e-309
-1.42738e-308
-2.08631e-308
-2.57034e-308
-2.1083e-308
-1.58592e-308
-9.60054e-309
-6.83042e-309
-5.17803e-309
-5.02971e-309
-6.49192e-309
-7.80376e-309
-5.87724e-309
-1.27444e-308
-1.27166e-308
-1.70868e-308
-2.16009e-308
-3.12148e-308
9.88615e-309
1.39998e-308
1.90735e-308
2.15763e-308
1.78399e-308
2.03935e-308
2.11471e-308
1.3692e-308
1.06538e-308
9.39701e-309
3.64267e-309
1.15371e-309
8.52659e-310
-3.5093e-309
-5.3406e-309
-4.0685e-309
-4.23323e-309
-4.69922e-309
-1.06948e-308
-1.37276e-308
-1.40722e-308
-9.92013e-309
-9.51015e-309
-8.6984e-309
-5.37372e-309
-2.23811e-309
-9.77356e-310
3.3788e-309
4.21864e-309
3.01428e-309
-2.68506e-309
-8.28092e-309
-1.0159e-308
-9.4042e-309
-7.65822e-309
-6.63168e-309