/*--------------------------------*- C++ -*----------------------------------*\
  =========                 |
  \\      /  F ield         | OpenFOAM: The Open Source CFD Toolbox
   \\    /   O peration     | Website:  https://openfoam.org
    \\  /    A nd           | Version:  11
     \\/     M anipulation  |
\*---------------------------------------------------------------------------*/
FoamFile
{
    format      ascii;
    class       volScalarField;
    location    "100";
    object      C;
}
// * * * * * * * * * * * * * * * * * * * * * * * * * * * * * * * * * * * * * //

dimensions      [0 0 0 1 0 0 0];

internalField   nonuniform List<scalar> 
332800
(
-1.29989e-192
-1.22401e-192
-1.08425e-192
-9.21194e-193
-7.59916e-193
-6.13743e-193
-4.88097e-193
-3.83699e-193
-2.98886e-193
-2.31053e-193
-1.7742e-193
-1.354e-193
-1.02731e-193
-7.75045e-194
-5.81489e-194
-4.33873e-194
-3.21951e-194
-2.3758e-194
-1.74339e-194
-1.27207e-194
-9.22813e-195
-6.65505e-195
-4.7705e-195
-3.39845e-195
-2.40561e-195
-1.69164e-195
-1.1815e-195
-8.19388e-196
-5.64104e-196
-3.85398e-196
-2.61214e-196
-1.75575e-196
-1.16988e-196
-7.72424e-197
-5.05142e-197
-3.2705e-197
-2.09526e-197
-1.32753e-197
-8.31262e-198
-5.13973e-198
-3.13468e-198
-1.89169e-198
-1.13048e-198
-6.6937e-199
-3.92853e-199
-2.286e-199
-1.31919e-199
-7.55136e-200
-4.28932e-200
-2.4194e-200
-1.3575e-200
-7.61055e-201
-4.3116e-201
-2.53605e-201
-1.63748e-201
-1.25817e-201
-1.2087e-201
-1.39912e-201
-1.80059e-201
-2.42499e-201
-3.31535e-201
-4.54293e-201
-6.2085e-201
-8.44672e-201
-1.14329e-200
-1.53922e-200
-2.061e-200
-2.7445e-200
-3.63426e-200
-4.78476e-200
-6.2613e-200
-8.13965e-200
-1.05027e-199
-1.34314e-199
-1.69833e-199
-2.11532e-199
-2.58066e-199
-3.05855e-199
-3.47917e-199
-3.7282e-199
-7.21086e-192
-6.10748e-192
-5.02897e-192
-4.09269e-192
-3.30124e-192
-2.64081e-192
-2.09526e-192
-1.64912e-192
-1.28796e-192
-9.98501e-193
-7.6868e-193
-5.87812e-193
-4.46629e-193
-3.37259e-193
-2.53135e-193
-1.88868e-193
-1.40088e-193
-1.03296e-193
-7.57176e-194
-5.51709e-194
-3.99566e-194
-2.87597e-194
-2.05702e-194
-1.46179e-194
-1.03191e-194
-7.23482e-195
-5.03666e-195
-3.48079e-195
-2.38735e-195
-1.62452e-195
-1.09638e-195
-7.33609e-196
-4.86488e-196
-3.19595e-196
-2.079e-196
-1.33852e-196
-8.52484e-197
-5.36752e-197
-3.33858e-197
-2.04915e-197
-1.23882e-197
-7.41885e-198
-4.40283e-198
-2.59013e-198
-1.51078e-198
-8.73873e-199
-5.01339e-199
-2.85323e-199
-1.61144e-199
-9.03877e-200
-5.04548e-200
-2.81763e-200
-1.5955e-200
-9.45852e-201
-6.25407e-201
-5.01008e-201
-5.03505e-201
-6.01617e-201
-7.87534e-201
-1.06945e-200
-1.4682e-200
-2.01648e-200
-2.75965e-200
-3.75775e-200
-5.08847e-200
-6.85081e-200
-9.16943e-200
-1.21994e-199
-1.61312e-199
-2.11954e-199
-2.76661e-199
-3.58634e-199
-4.61534e-199
-5.89469e-199
-7.46984e-199
-9.3907e-199
-1.17105e-198
-1.44775e-198
-1.76925e-198
-2.10223e-198
-2.61191e-191
-2.18096e-191
-1.73025e-191
-1.35698e-191
-1.06197e-191
-8.3047e-192
-6.48463e-192
-5.05001e-192
-3.91824e-192
-3.02647e-192
-2.32587e-192
-1.77779e-192
-1.35118e-192
-1.021e-192
-7.66951e-193
-5.7268e-193
-4.2504e-193
-3.1354e-193
-2.29862e-193
-1.67461e-193
-1.21224e-193
-8.71836e-194
-6.22861e-194
-4.41962e-194
-3.11415e-194
-2.17852e-194
-1.5127e-194
-1.04233e-194
-7.1251e-195
-4.83036e-195
-3.24656e-195
-2.16252e-195
-1.42698e-195
-9.32406e-196
-6.03005e-196
-3.85784e-196
-2.44024e-196
-1.52512e-196
-9.41011e-197
-5.72437e-197
-3.42438e-197
-2.03101e-197
-1.19447e-197
-6.96657e-198
-4.02985e-198
-2.31217e-198
-1.316e-198
-7.43129e-199
-4.16492e-199
-2.31889e-199
-1.28571e-199
-7.14447e-200
-4.0446e-200
-2.42375e-200
-1.65203e-200
-1.38956e-200
-1.46425e-200
-1.80329e-200
-2.39597e-200
-3.27486e-200
-4.5079e-200
-6.19714e-200
-8.48198e-200
-1.15456e-199
-1.5624e-199
-2.10178e-199
-2.81066e-199
-3.73666e-199
-4.9392e-199
-6.49226e-199
-8.48813e-199
-1.10426e-198
-1.43029e-198
-1.84597e-198
-2.37646e-198
-3.05524e-198
-3.92535e-198
-5.03239e-198
-6.37633e-198
-7.6742e-198
-7.70112e-191
-6.51823e-191
-5.14371e-191
-3.96054e-191
-3.02922e-191
-2.31575e-191
-1.77204e-191
-1.35684e-191
-1.03858e-191
-7.93845e-192
-6.05319e-192
-4.60065e-192
-3.48287e-192
-2.62482e-192
-1.96837e-192
-1.46828e-192
-1.08912e-192
-8.03145e-193
-5.88671e-193
-4.28766e-193
-3.10279e-193
-2.23042e-193
-1.59233e-193
-1.12876e-193
-7.94328e-194
-5.54783e-194
-3.84469e-194
-2.64298e-194
-1.80173e-194
-1.2176e-194
-8.15435e-195
-5.40966e-195
-3.55358e-195
-2.31036e-195
-1.48592e-195
-9.44891e-196
-5.93718e-196
-3.68373e-196
-2.25477e-196
-1.35944e-196
-8.04742e-197
-4.726e-197
-2.75339e-197
-1.5914e-197
-9.12502e-198
-5.19088e-198
-2.92974e-198
-1.64082e-198
-9.12246e-199
-5.0403e-199
-2.77565e-199
-1.53536e-199
-8.70182e-200
-5.28774e-200
-3.73079e-200
-3.29769e-200
-3.62789e-200
-4.58157e-200
-6.15852e-200
-8.45844e-200
-1.16657e-199
-1.60494e-199
-2.19745e-199
-2.99207e-199
-4.05107e-199
-5.45469e-199
-7.30608e-199
-9.73789e-199
-1.29214e-198
-1.7079e-198
-2.25024e-198
-2.95791e-198
-3.88299e-198
-5.09612e-198
-6.69299e-198
-8.79909e-198
-1.15614e-197
-1.50863e-197
-1.92e-197
-2.27758e-197
-2.01072e-190
-1.73035e-190
-1.37739e-190
-1.05734e-190
-7.99566e-191
-6.01697e-191
-4.52551e-191
-3.40682e-191
-2.56712e-191
-1.9351e-191
-1.45801e-191
-1.09709e-191
-8.23723e-192
-6.1666e-192
-4.59986e-192
-3.41683e-192
-2.52616e-192
-1.85806e-192
-1.3591e-192
-9.88281e-193
-7.14172e-193
-5.12728e-193
-3.65598e-193
-2.58838e-193
-1.81901e-193
-1.26851e-193
-8.77558e-194
-6.02057e-194
-4.09481e-194
-2.75997e-194
-1.84282e-194
-1.21839e-194
-7.97302e-195
-5.16152e-195
-3.30389e-195
-2.08987e-195
-1.30552e-195
-8.04819e-196
-4.89131e-196
-2.92568e-196
-1.71585e-196
-9.98704e-197
-5.76852e-197
-3.30628e-197
-1.88041e-197
-1.06121e-197
-5.94299e-198
-3.3032e-198
-1.82304e-198
-1.00033e-198
-5.4763e-199
-3.01889e-199
-1.71562e-199
-1.0591e-199
-7.73693e-200
-7.1529e-200
-8.15269e-200
-1.04985e-199
-1.42407e-199
-1.96428e-199
-2.71578e-199
-3.74369e-199
-5.13645e-199
-7.0115e-199
-9.52351e-199
-1.28758e-198
-1.73362e-198
-2.32587e-198
-3.11145e-198
-4.15358e-198
-5.53769e-198
-7.38012e-198
-9.83975e-198
-1.31321e-197
-1.75419e-197
-2.34181e-197
-3.11046e-197
-4.06848e-197
-5.12946e-197
-5.98076e-197
-4.82843e-190
-4.21675e-190
-3.40055e-190
-2.62442e-190
-1.97985e-190
-1.47766e-190
-1.0982e-190
-8.15349e-191
-6.05541e-191
-4.49997e-191
-3.34521e-191
-2.48623e-191
-1.84614e-191
-1.36862e-191
-1.01224e-191
-7.46414e-192
-5.48399e-192
-4.01222e-192
-2.92155e-192
-2.11629e-192
-1.52429e-192
-1.09122e-192
-7.76129e-193
-5.4823e-193
-3.84446e-193
-2.6754e-193
-1.84698e-193
-1.26441e-193
-8.58006e-194
-5.76892e-194
-3.84159e-194
-2.53244e-194
-1.65184e-194
-1.06554e-194
-6.79364e-195
-4.27863e-195
-2.66003e-195
-1.63119e-195
-9.85599e-196
-5.85701e-196
-3.40918e-196
-1.96977e-196
-1.12961e-196
-6.42938e-197
-3.63175e-197
-2.03597e-197
-1.13282e-197
-6.25704e-198
-3.43269e-198
-1.8733e-198
-1.02101e-198
-5.61767e-199
-3.20538e-199
-2.011e-199
-1.51681e-199
-1.45623e-199
-1.70663e-199
-2.23149e-199
-3.05093e-199
-4.22876e-199
-5.86974e-199
-8.12386e-199
-1.11964e-198
-1.5364e-198
-2.09976e-198
-2.85948e-198
-3.88256e-198
-5.2596e-198
-7.11377e-198
-9.61328e-198
-1.29887e-197
-1.75558e-197
-2.37435e-197
-3.21218e-197
-4.34086e-197
-5.84042e-197
-7.77213e-197
-1.0106e-196
-1.25703e-196
-1.44356e-196
-1.09003e-189
-9.6353e-190
-7.87356e-190
-6.13085e-190
-4.63887e-190
-3.45345e-190
-2.54899e-190
-1.87377e-190
-1.37524e-190
-1.00898e-190
-7.40299e-191
-5.43159e-191
-3.98376e-191
-2.91936e-191
-2.13628e-191
-1.56004e-191
-1.13619e-191
-8.24786e-192
-5.9642e-192
-4.2938e-192
-3.07593e-192
-2.19147e-192
-1.55206e-192
-1.09215e-192
-7.63248e-193
-5.29488e-193
-3.64467e-193
-2.48815e-193
-1.68387e-193
-1.12915e-193
-7.49882e-194
-4.92961e-194
-3.20609e-194
-2.06177e-194
-1.31023e-194
-8.22274e-195
-5.09266e-195
-3.11009e-195
-1.87077e-195
-1.10626e-195
-6.40333e-196
-3.67943e-196
-2.0987e-196
-1.18822e-196
-6.67747e-197
-3.72482e-197
-2.0626e-197
-1.13409e-197
-6.19556e-198
-3.3686e-198
-1.83113e-198
-1.00716e-198
-5.77539e-199
-3.67921e-199
-2.85251e-199
-2.82293e-199
-3.38124e-199
-4.47753e-199
-6.16986e-199
-8.60388e-199
-1.20124e-198
-1.6729e-198
-2.32159e-198
-3.21048e-198
-4.42582e-198
-6.08538e-198
-8.35043e-198
-1.14425e-197
-1.56667e-197
-2.14432e-197
-2.93497e-197
-4.01735e-197
-5.49667e-197
-7.50828e-197
-1.02131e-196
-1.37706e-196
-1.82627e-196
-2.35263e-196
-2.88678e-196
-3.27408e-196
-2.3464e-189
-2.09443e-189
-1.73204e-189
-1.36194e-189
-1.03636e-189
-7.7238e-190
-5.6837e-190
-4.15148e-190
-3.01989e-190
-2.19211e-190
-1.5896e-190
-1.15205e-190
-8.34545e-191
-6.04145e-191
-4.36913e-191
-3.1551e-191
-2.27391e-191
-1.63468e-191
-1.17153e-191
-8.36544e-192
-5.94832e-192
-4.20951e-192
-2.96323e-192
-2.07379e-192
-1.44212e-192
-9.95984e-193
-6.82794e-193
-4.644e-193
-3.13206e-193
-2.09351e-193
-1.38609e-193
-9.08517e-194
-5.89184e-194
-3.77816e-194
-2.39411e-194
-1.49814e-194
-9.25083e-195
-5.63201e-195
-3.3768e-195
-1.99003e-195
-1.14764e-195
-6.57049e-196
-3.73433e-196
-2.10692e-196
-1.18008e-196
-6.56182e-197
-3.62284e-197
-1.98661e-197
-1.08277e-197
-5.87657e-198
-3.19177e-198
-1.75759e-198
-1.01349e-198
-6.54552e-199
-5.19098e-199
-5.26143e-199
-6.41303e-199
-8.58903e-199
-1.19346e-198
-1.67683e-198
-2.35908e-198
-3.31238e-198
-4.63784e-198
-6.47579e-198
-9.02054e-198
-1.25413e-197
-1.74115e-197
-2.41493e-197
-3.34729e-197
-4.63745e-197
-6.42125e-197
-8.88169e-197
-1.22581e-196
-1.68467e-196
-2.29776e-196
-3.09362e-196
-4.07817e-196
-5.20063e-196
-6.30368e-196
-7.07799e-196
-4.86363e-189
-4.3756e-189
-3.6561e-189
-2.90209e-189
-2.2231e-189
-1.66206e-189
-1.22253e-189
-8.89696e-190
-6.43087e-190
-4.62871e-190
-3.32295e-190
-2.38167e-190
-1.70511e-190
-1.21957e-190
-8.71394e-191
-6.21833e-191
-4.43033e-191
-3.15005e-191
-2.23416e-191
-1.5798e-191
-1.11316e-191
-7.81162e-192
-5.45653e-192
-3.79177e-192
-2.61985e-192
-1.79878e-192
-1.22661e-192
-8.30253e-193
-5.57502e-193
-3.7116e-193
-2.44848e-193
-1.59953e-193
-1.03413e-193
-6.61249e-194
-4.17898e-194
-2.60846e-194
-1.60685e-194
-9.76036e-195
-5.83922e-195
-3.43397e-195
-1.97646e-195
-1.12936e-195
-6.40672e-196
-3.60831e-196
-2.01774e-196
-1.12038e-196
-6.17845e-197
-3.38505e-197
-1.84406e-197
-1.00089e-197
-5.44108e-198
-3.00384e-198
-1.7424e-198
-1.13879e-198
-9.19652e-199
-9.49833e-199
-1.17467e-198
-1.59026e-198
-2.22995e-198
-3.16098e-198
-4.48811e-198
-6.3634e-198
-9.00236e-198
-1.27079e-197
-1.79048e-197
-2.51881e-197
-3.53908e-197
-4.96759e-197
-6.96601e-197
-9.75725e-197
-1.36442e-196
-1.9029e-196
-2.6424e-196
-3.64388e-196
-4.97066e-196
-6.66931e-196
-8.73086e-196
-1.10265e-195
-1.32247e-195
-1.47296e-195
-9.77793e-189
-8.85289e-189
-7.46224e-189
-5.97419e-189
-4.60743e-189
-3.45882e-189
-2.54707e-189
-1.85042e-189
-1.33173e-189
-9.5227e-190
-6.77948e-190
-4.81197e-190
-3.40817e-190
-2.40994e-190
-1.70166e-190
-1.19986e-190
-8.4472e-191
-5.93626e-191
-4.16276e-191
-2.91169e-191
-2.03051e-191
-1.41108e-191
-9.76702e-192
-6.72982e-192
-4.61356e-192
-3.14496e-192
-2.13053e-192
-1.43351e-192
-9.57395e-193
-6.34298e-193
-4.16616e-193
-2.71106e-193
-1.7467e-193
-1.11347e-193
-7.01806e-194
-4.37032e-194
-2.68676e-194
-1.62923e-194
-9.73362e-195
-5.71836e-195
-3.28948e-195
-1.87872e-195
-1.06536e-195
-5.99878e-196
-3.3543e-196
-1.86285e-196
-1.02776e-196
-5.63532e-197
-3.0736e-197
-1.67111e-197
-9.10702e-198
-5.04656e-198
-2.94541e-198
-1.94491e-198
-1.59352e-198
-1.67077e-198
-2.09256e-198
-2.86315e-198
-4.05482e-198
-5.80533e-198
-8.32848e-198
-1.19369e-197
-1.70784e-197
-2.43898e-197
-3.4773e-197
-4.95027e-197
-7.03745e-197
-9.99047e-197
-1.41592e-196
-2.00237e-196
-2.82302e-196
-3.96221e-196
-5.52467e-196
-7.62992e-196
-1.03935e-195
-1.38848e-195
-1.80501e-195
-2.25971e-195
-2.68605e-195
-2.9722e-195
-1.91713e-188
-1.74476e-188
-1.48156e-188
-1.19508e-188
-9.27561e-189
-6.99389e-189
-5.16068e-189
-3.74745e-189
-2.68935e-189
-1.91348e-189
-1.35296e-189
-9.5227e-190
-6.6799e-190
-4.67367e-190
-3.26314e-190
-2.27413e-190
-1.58207e-190
-1.0986e-190
-7.61334e-191
-5.26401e-191
-3.63008e-191
-2.49575e-191
-1.70993e-191
-1.16692e-191
-7.92794e-192
-5.35926e-192
-3.6027e-192
-2.40699e-192
-1.59728e-192
-1.05215e-192
-6.87515e-193
-4.45357e-193
-2.85799e-193
-1.81568e-193
-1.14111e-193
-7.08925e-194
-4.35028e-194
-2.63448e-194
-1.57267e-194
-9.23726e-195
-5.3168e-195
-3.03871e-195
-1.72462e-195
-9.72096e-196
-5.44251e-196
-3.02723e-196
-1.67326e-196
-9.19516e-197
-5.02851e-197
-2.74263e-197
-1.50036e-197
-8.35394e-198
-4.90713e-198
-3.26967e-198
-2.71056e-198
-2.87766e-198
-3.64591e-198
-5.04228e-198
-7.2168e-198
-1.04445e-197
-1.51519e-197
-2.19676e-197
-3.18004e-197
-4.59558e-197
-6.62987e-197
-9.54828e-197
-1.37263e-196
-1.9691e-196
-2.81738e-196
-4.0173e-196
-5.70173e-196
-8.04111e-196
-1.12416e-195
-1.55293e-195
-2.1107e-195
-2.80679e-195
-3.62498e-195
-4.50332e-195
-5.3129e-195
-5.84771e-195
-3.68182e-188
-3.36498e-188
-2.87503e-188
-2.33426e-188
-1.82221e-188
-1.37988e-188
-1.02064e-188
-7.41375e-189
-5.31098e-189
-3.76451e-189
-2.64689e-189
-1.84966e-189
-1.28645e-189
-8.91446e-190
-6.159e-190
-4.24469e-190
-2.91893e-190
-2.00305e-190
-1.37165e-190
-9.37197e-191
-6.38791e-191
-4.34214e-191
-2.94249e-191
-1.98709e-191
-1.33666e-191
-8.95173e-192
-5.96554e-192
-3.95372e-192
-2.60448e-192
-1.70423e-192
-1.107e-192
-7.13332e-193
-4.55685e-193
-2.88376e-193
-1.80659e-193
-1.11954e-193
-6.85734e-194
-4.14789e-194
-2.47501e-194
-1.45422e-194
-8.38187e-195
-4.79808e-195
-2.72805e-195
-1.54085e-195
-8.64695e-196
-4.82235e-196
-2.67351e-196
-1.47419e-196
-8.09283e-197
-4.43313e-197
-2.43711e-197
-1.36466e-197
-8.07004e-198
-5.42186e-198
-4.54002e-198
-4.87288e-198
-6.24185e-198
-8.7272e-198
-1.263e-197
-1.84874e-197
-2.7133e-197
-3.98043e-197
-5.83077e-197
-8.52588e-197
-1.24422e-196
-1.81182e-196
-2.63184e-196
-3.8116e-196
-5.49964e-196
-7.89733e-196
-1.12697e-195
-1.59511e-195
-2.23359e-195
-3.08397e-195
-4.18086e-195
-5.53489e-195
-7.10615e-195
-8.7695e-195
-1.02812e-194
-1.12671e-194
-6.9502e-188
-6.37417e-188
-5.47417e-188
-4.46936e-188
-3.50677e-188
-2.66616e-188
-1.97697e-188
-1.43712e-188
-1.02841e-188
-7.26861e-189
-5.08736e-189
-3.53334e-189
-2.43909e-189
-1.67554e-189
-1.14649e-189
-7.81912e-190
-5.31771e-190
-3.60741e-190
-2.44138e-190
-1.64839e-190
-1.11028e-190
-7.45916e-191
-4.99722e-191
-3.33747e-191
-2.22126e-191
-1.47264e-191
-9.72086e-192
-6.38568e-192
-4.17222e-192
-2.70976e-192
-1.74836e-192
-1.11992e-192
-7.11721e-193
-4.48429e-193
-2.79916e-193
-1.72977e-193
-1.0574e-193
-6.38855e-194
-3.81081e-194
-2.24056e-194
-1.29388e-194
-7.42279e-195
-4.23086e-195
-2.39633e-195
-1.34898e-195
-7.54946e-196
-4.20168e-196
-2.32681e-196
-1.28344e-196
-7.06751e-197
-3.90789e-197
-2.2022e-197
-1.31154e-197
-8.88257e-198
-7.50686e-198
-8.14034e-198
-1.05408e-197
-1.49032e-197
-2.18157e-197
-3.23073e-197
-4.79778e-197
-7.12195e-197
-1.05553e-196
-1.56115e-196
-2.30342e-196
-3.38919e-196
-4.97044e-196
-7.26049e-196
-1.05535e-195
-1.52457e-195
-2.18526e-195
-3.10143e-195
-4.34683e-195
-5.99634e-195
-8.10766e-195
-1.06892e-194
-1.36521e-194
-1.67523e-194
-1.95373e-194
-2.13346e-194
-1.2933e-187
-1.1895e-187
-1.02594e-187
-8.41597e-188
-6.63273e-188
-5.06102e-188
-3.7618e-188
-2.73721e-188
-1.95758e-188
-1.38055e-188
-9.62631e-189
-6.65092e-189
-4.56109e-189
-3.10897e-189
-2.10861e-189
-1.42419e-189
-9.58525e-190
-6.43129e-190
-4.30312e-190
-2.87168e-190
-1.91155e-190
-1.26917e-190
-8.404e-191
-5.54891e-191
-3.65234e-191
-2.39573e-191
-1.56546e-191
-1.01858e-191
-6.59619e-192
-4.24915e-192
-2.72129e-192
-1.73161e-192
-1.09408e-192
-6.8593e-193
-4.26422e-193
-2.62672e-193
-1.60203e-193
-9.66619e-194
-5.76394e-194
-3.39143e-194
-1.9627e-194
-1.1288e-194
-6.45257e-195
-3.66663e-195
-2.07164e-195
-1.1641e-195
-6.50802e-196
-3.62188e-196
-2.00863e-196
-1.11264e-196
-6.19177e-197
-3.51352e-197
-2.10825e-197
-1.43964e-197
-1.22799e-197
-1.34545e-197
-1.76154e-197
-2.51915e-197
-3.73071e-197
-5.59004e-197
-8.39935e-197
-1.26137e-196
-1.89075e-196
-2.82715e-196
-4.21473e-196
-6.26138e-196
-9.26315e-196
-1.36352e-195
-1.9948e-195
-2.89644e-195
-4.16675e-195
-5.9259e-195
-8.30936e-195
-1.145e-194
-1.54426e-194
-2.02839e-194
-2.57893e-194
-3.14935e-194
-3.6569e-194
-3.98161e-194
-2.37791e-187
-2.1922e-187
-1.89756e-187
-1.56282e-187
-1.23639e-187
-9.46417e-188
-7.05027e-188
-5.13529e-188
-3.67151e-188
-2.58486e-188
-1.79678e-188
-1.23588e-188
-8.42686e-189
-5.70432e-189
-3.83807e-189
-2.56927e-189
-1.71248e-189
-1.13714e-189
-7.52601e-190
-4.96612e-190
-3.2678e-190
-2.14448e-190
-1.40353e-190
-9.16059e-191
-5.96162e-191
-3.86768e-191
-2.50069e-191
-1.61081e-191
-1.03331e-191
-6.59811e-192
-4.19174e-192
-2.64798e-192
-1.66236e-192
-1.03646e-192
-6.41369e-193
-3.93637e-193
-2.39441e-193
-1.44236e-193
-8.59602e-194
-5.06106e-194
-2.93524e-194
-1.69254e-194
-9.70457e-195
-5.53386e-195
-3.13897e-195
-1.77162e-195
-9.95268e-196
-5.56855e-196
-3.10625e-196
-1.73157e-196
-9.70213e-197
-5.54616e-197
-3.35456e-197
-2.31101e-197
-1.99105e-197
-2.20568e-197
-2.92123e-197
-4.22657e-197
-6.33281e-197
-9.59997e-197
-1.4591e-196
-2.21591e-196
-3.35775e-196
-5.07266e-196
-7.6356e-196
-1.14441e-195
-1.70647e-195
-2.52911e-195
-3.72099e-195
-5.42646e-195
-7.82979e-195
-1.11531e-194
-1.5642e-194
-2.15297e-194
-2.89696e-194
-3.79274e-194
-4.80339e-194
-5.84204e-194
-6.75889e-194
-7.34131e-194
-4.32857e-187
-3.99826e-187
-3.47117e-187
-2.86846e-187
-2.2767e-187
-1.74758e-187
-1.30445e-187
-9.51096e-188
-6.79907e-188
-4.78035e-188
-3.31433e-188
-2.27099e-188
-1.54071e-188
-1.03655e-188
-6.92426e-189
-4.59767e-189
-3.03711e-189
-1.99731e-189
-1.30838e-189
-8.5411e-190
-5.55807e-190
-3.60628e-190
-2.33333e-190
-1.50554e-190
-9.6871e-191
-6.21492e-191
-3.97504e-191
-2.534e-191
-1.60953e-191
-1.01826e-191
-6.41362e-192
-4.02e-192
-2.50611e-192
-1.55302e-192
-9.56078e-193
-5.84348e-193
-3.54337e-193
-2.13011e-193
-1.26835e-193
-7.47042e-194
-4.34099e-194
-2.50931e-194
-1.44308e-194
-8.25776e-195
-4.70283e-195
-2.66624e-195
-1.50536e-195
-8.46901e-196
-4.75266e-196
-2.66669e-196
-1.50476e-196
-8.66807e-197
-5.28751e-197
-3.67833e-197
-3.20507e-197
-3.59417e-197
-4.81855e-197
-7.05499e-197
-1.06942e-196
-1.63968e-196
-2.51993e-196
-3.86815e-196
-5.92155e-196
-9.03226e-196
-1.37172e-195
-2.07253e-195
-3.11247e-195
-4.64096e-195
-6.86179e-195
-1.00442e-194
-1.45288e-194
-2.07213e-194
-2.90621e-194
-3.99573e-194
-5.36535e-194
-7.00443e-194
-8.84152e-194
-1.07167e-193
-1.23611e-193
-1.33996e-193
-7.81377e-187
-7.22906e-187
-6.29159e-187
-5.21381e-187
-4.14962e-187
-3.19281e-187
-2.38739e-187
-1.74232e-187
-1.2455e-187
-8.74758e-188
-6.05175e-188
-4.13308e-188
-2.79176e-188
-1.86802e-188
-1.23986e-188
-8.17225e-189
-5.35432e-189
-3.48984e-189
-2.26429e-189
-1.46323e-189
-9.42184e-190
-6.04698e-190
-3.86925e-190
-2.46869e-190
-1.57069e-190
-9.9656e-191
-6.30484e-191
-3.9769e-191
-2.5005e-191
-1.56677e-191
-9.78001e-192
-6.07937e-192
-3.7616e-192
-2.31561e-192
-1.41744e-192
-8.6226e-193
-5.20951e-193
-3.12379e-193
-1.85751e-193
-1.09399e-193
-6.3669e-194
-3.68831e-194
-2.12692e-194
-1.22112e-194
-6.98121e-195
-3.97541e-195
-2.25563e-195
-1.27595e-195
-7.20349e-196
-4.06832e-196
-2.31207e-196
-1.34236e-196
-8.26257e-197
-5.81117e-197
-5.13005e-197
-5.83258e-197
-7.92176e-197
-1.17392e-196
-1.79992e-196
-2.7902e-196
-4.33365e-196
-6.71973e-196
-1.03854e-195
-1.59824e-195
-2.44705e-195
-3.72427e-195
-5.62871e-195
-8.43796e-195
-1.25295e-194
-1.83994e-194
-2.66701e-194
-3.80751e-194
-5.33981e-194
-7.33427e-194
-9.83032e-194
-1.28021e-193
-1.61145e-193
-1.94764e-193
-2.24086e-193
-2.42514e-193
-1.40071e-186
-1.2976e-186
-1.13165e-186
-9.39993e-187
-7.49869e-187
-5.78136e-187
-4.32952e-187
-3.16233e-187
-2.26067e-187
-1.58636e-187
-1.09547e-187
-7.46048e-188
-5.02011e-188
-3.34301e-188
-2.20618e-188
-1.44457e-188
-9.3945e-189
-6.07328e-189
-3.90576e-189
-2.5003e-189
-1.59405e-189
-1.01257e-189
-6.41058e-190
-4.04609e-190
-2.54634e-190
-1.59804e-190
-1.00015e-190
-6.24218e-191
-3.88473e-191
-2.41029e-191
-1.49061e-191
-9.18588e-192
-5.63878e-192
-3.44654e-192
-2.09661e-192
-1.26873e-192
-7.63309e-193
-4.56288e-193
-2.70808e-193
-1.59401e-193
-9.28617e-194
-5.38839e-194
-3.11448e-194
-1.79336e-194
-1.02891e-194
-5.88327e-195
-3.35384e-195
-1.90716e-195
-1.08297e-195
-6.15537e-196
-3.52281e-196
-2.06162e-196
-1.2812e-196
-9.12261e-197
-8.1764e-197
-9.44192e-197
-1.30027e-196
-1.95045e-196
-3.02406e-196
-4.73729e-196
-7.43145e-196
-1.16322e-195
-1.81367e-195
-2.81389e-195
-4.34018e-195
-6.64892e-195
-1.01059e-194
-1.52214e-194
-2.26871e-194
-3.34073e-194
-4.85097e-194
-6.93095e-194
-9.71933e-194
-1.33376e-193
-1.78486e-193
-2.31963e-193
-2.91291e-193
-3.51222e-193
-4.03258e-193
-4.35831e-193
-2.49639e-186
-2.31514e-186
-2.02247e-186
-1.68324e-186
-1.34539e-186
-1.03905e-186
-7.79133e-187
-5.69506e-187
-4.07146e-187
-2.85499e-187
-1.96846e-187
-1.33733e-187
-8.969e-188
-5.94763e-188
-3.90522e-188
-2.54203e-188
-1.64215e-188
-1.05375e-188
-6.72216e-189
-4.26599e-189
-2.69482e-189
-1.69533e-189
-1.06261e-189
-6.63805e-190
-4.134e-190
-2.56715e-190
-1.58981e-190
-9.81942e-191
-6.04888e-191
-3.71612e-191
-2.27655e-191
-1.39046e-191
-8.46506e-192
-5.13517e-192
-3.10298e-192
-1.8669e-192
-1.11783e-192
-6.65752e-193
-3.94132e-193
-2.31709e-193
-1.35031e-193
-7.84356e-194
-4.54148e-194
-2.62136e-194
-1.50856e-194
-8.65771e-195
-4.95663e-195
-2.83235e-195
-1.61711e-195
-9.2472e-196
-5.32842e-196
-3.14322e-196
-1.97328e-196
-1.42472e-196
-1.29949e-196
-1.52705e-196
-2.13398e-196
-3.24029e-196
-5.07822e-196
-8.03449e-196
-1.27214e-195
-2.00861e-195
-3.15714e-195
-4.93453e-195
-7.66179e-195
-1.18063e-194
-1.80349e-194
-2.72766e-194
-4.07876e-194
-6.02031e-194
-8.75496e-194
-1.25172e-193
-1.75511e-193
-2.40659e-193
-3.21623e-193
-4.17253e-193
-5.22937e-193
-6.29278e-193
-7.21268e-193
-7.78662e-193
-4.42771e-186
-4.10992e-186
-3.59539e-186
-2.99718e-186
-2.3995e-186
-1.8558e-186
-1.3931e-186
-1.01893e-186
-7.28485e-187
-5.10521e-187
-3.51529e-187
-2.38323e-187
-1.59376e-187
-1.053e-187
-6.88324e-188
-4.45714e-188
-2.86215e-188
-1.82441e-188
-1.15534e-188
-7.27411e-189
-4.55631e-189
-2.84089e-189
-1.76408e-189
-1.0914e-189
-6.72984e-190
-4.13721e-190
-2.53624e-190
-1.5507e-190
-9.4573e-191
-5.75344e-191
-3.49143e-191
-2.1133e-191
-1.27568e-191
-7.67818e-192
-4.60679e-192
-2.75437e-192
-1.64047e-192
-9.72844e-193
-5.74116e-193
-3.36879e-193
-1.96241e-193
-1.14029e-193
-6.60935e-194
-3.82166e-194
-2.20471e-194
-1.26922e-194
-7.2936e-195
-4.18591e-195
-2.40179e-195
-1.38116e-195
-8.01015e-196
-4.76265e-196
-3.02225e-196
-2.2164e-196
-2.06232e-196
-2.47072e-196
-3.50608e-196
-5.38846e-196
-8.53215e-196
-1.36249e-195
-2.17587e-195
-3.46292e-195
-5.48296e-195
-8.6268e-195
-1.34744e-194
-2.0871e-194
-3.20228e-194
-4.86082e-194
-7.28908e-194
-1.07807e-193
-1.56977e-193
-2.24558e-193
-3.14833e-193
-4.31408e-193
-5.7589e-193
-7.46027e-193
-9.33444e-193
-1.12142e-192
-1.28352e-192
-1.38439e-192
-7.82182e-186
-7.26575e-186
-6.36347e-186
-5.31181e-186
-4.25828e-186
-3.29737e-186
-2.47753e-186
-1.81306e-186
-1.29631e-186
-9.07993e-187
-6.24511e-187
-4.22638e-187
-2.81933e-187
-1.8568e-187
-1.20902e-187
-7.7928e-188
-4.97773e-188
-3.15409e-188
-1.9843e-188
-1.24041e-188
-7.71002e-189
-4.76809e-189
-2.93541e-189
-1.79985e-189
-1.09959e-189
-6.69595e-190
-4.06546e-190
-2.46169e-190
-1.48686e-190
-8.95942e-191
-5.38643e-191
-3.23107e-191
-1.93374e-191
-1.15457e-191
-6.87615e-192
-4.08395e-192
-2.41828e-192
-1.42716e-192
-8.39035e-193
-4.91045e-193
-2.85705e-193
-1.65939e-193
-9.62098e-194
-5.56872e-194
-3.21811e-194
-1.85708e-194
-1.07045e-194
-6.16629e-195
-3.55353e-195
-2.05384e-195
-1.19835e-195
-7.18079e-196
-4.60887e-196
-3.43931e-196
-3.27272e-196
-4.00398e-196
-5.77253e-196
-8.9775e-196
-1.4354e-195
-2.31194e-195
-3.72114e-195
-5.96499e-195
-9.50679e-195
-1.50468e-194
-2.36258e-194
-3.67624e-194
-5.66237e-194
-8.62216e-194
-1.2961e-193
-1.92032e-193
-2.79919e-193
-4.00616e-193
-5.6162e-193
-7.69138e-193
-1.02575e-192
-1.32716e-192
-1.6583e-192
-1.98954e-192
-2.27448e-192
-2.45139e-192
-1.3772e-185
-1.28007e-185
-1.12217e-185
-9.37746e-186
-7.52593e-186
-5.83344e-186
-4.38641e-186
-3.21142e-186
-2.29622e-186
-1.60768e-186
-1.10469e-186
-7.4645e-187
-4.96878e-187
-3.26337e-187
-2.11767e-187
-1.35946e-187
-8.64331e-188
-5.44798e-188
-3.4074e-188
-2.11641e-188
-1.30641e-188
-8.01955e-189
-4.89855e-189
-2.97895e-189
-1.80444e-189
-1.08915e-189
-6.55337e-190
-3.93197e-190
-2.35313e-190
-1.40498e-190
-8.37061e-191
-4.97691e-191
-2.95332e-191
-1.74909e-191
-1.03382e-191
-6.09766e-192
-3.58835e-192
-2.10638e-192
-1.23292e-192
-7.19186e-193
-4.17613e-193
-2.42247e-193
-1.40379e-193
-8.12694e-194
-4.70083e-194
-2.71712e-194
-1.56979e-194
-9.06957e-195
-5.24569e-195
-3.04526e-195
-1.78665e-195
-1.0788e-195
-7.00791e-196
-5.33128e-196
-5.20012e-196
-6.50601e-196
-9.53157e-196
-1.49946e-195
-2.41936e-195
-3.92755e-195
-6.36647e-195
-1.02715e-194
-1.64665e-194
-2.61993e-194
-4.1328e-194
-6.45655e-194
-9.97829e-194
-1.52356e-193
-2.29506e-193
-3.40549e-193
-4.96868e-193
-7.11394e-193
-9.97226e-193
-1.36505e-192
-1.81904e-192
-2.35117e-192
-2.9345e-192
-3.51671e-192
-4.0165e-192
-4.32626e-192
-2.41825e-185
-2.2488e-185
-1.97293e-185
-1.65019e-185
-1.32558e-185
-1.02832e-185
-7.7373e-186
-5.66678e-186
-4.05198e-186
-2.83591e-186
-1.94705e-186
-1.31392e-186
-8.73013e-187
-5.72008e-187
-3.70097e-187
-2.36756e-187
-1.49915e-187
-9.40564e-188
-5.85237e-188
-3.61441e-188
-2.21734e-188
-1.35213e-188
-8.20093e-189
-4.95015e-189
-2.97514e-189
-1.7813e-189
-1.06289e-189
-6.32313e-190
-3.75157e-190
-2.22056e-190
-1.31156e-190
-7.73186e-191
-4.55004e-191
-2.6732e-191
-1.56803e-191
-9.18306e-192
-5.3691e-192
-3.13358e-192
-1.82517e-192
-1.06048e-192
-6.14101e-193
-3.55493e-193
-2.05726e-193
-1.19025e-193
-6.88525e-194
-3.98283e-194
-2.30442e-194
-1.33425e-194
-7.73914e-195
-4.50934e-195
-2.65873e-195
-1.61738e-195
-1.06409e-195
-8.2679e-196
-8.28374e-196
-1.06088e-195
-1.57932e-195
-2.51185e-195
-4.08708e-195
-6.6824e-195
-1.09011e-194
-1.76888e-194
-2.85044e-194
-4.55622e-194
-7.21637e-194
-1.13132e-193
-1.75351e-193
-2.68369e-193
-4.04997e-193
-6.01718e-193
-8.78615e-193
-1.25839e-192
-1.76391e-192
-2.41358e-192
-3.21418e-192
-4.15095e-192
-5.17598e-192
-6.19721e-192
-7.07242e-192
-7.61403e-192
-4.23673e-185
-3.94143e-185
-3.46012e-185
-2.89624e-185
-2.32827e-185
-1.80738e-185
-1.36062e-185
-9.96818e-186
-7.1278e-186
-4.98706e-186
-3.42158e-186
-2.30639e-186
-1.53004e-186
-1.00046e-186
-6.4567e-187
-4.11792e-187
-2.59827e-187
-1.62359e-187
-1.00566e-187
-6.17992e-188
-3.77055e-188
-2.28574e-188
-1.37762e-188
-8.25996e-189
-4.92958e-189
-2.92986e-189
-1.73497e-189
-1.02408e-189
-6.02754e-190
-3.53891e-190
-2.07328e-190
-1.21235e-190
-7.07757e-191
-4.12581e-191
-2.40198e-191
-1.39671e-191
-8.11219e-192
-4.70602e-192
-2.72649e-192
-1.57709e-192
-9.10137e-193
-5.25389e-193
-3.03395e-193
-1.75276e-193
-1.01313e-193
-5.85998e-194
-3.39252e-194
-1.96677e-194
-1.14308e-194
-6.67968e-195
-3.95542e-195
-2.42369e-195
-1.61609e-195
-1.28477e-195
-1.3245e-195
-1.73721e-195
-2.62696e-195
-4.22136e-195
-6.92167e-195
-1.13898e-194
-1.86854e-194
-3.04741e-194
-4.93305e-194
-7.91693e-194
-1.25834e-193
-1.97868e-193
-3.07459e-193
-4.71506e-193
-7.12652e-193
-1.05997e-192
-1.54878e-192
-2.21889e-192
-3.11012e-192
-4.25426e-192
-5.66239e-192
-7.30766e-192
-9.10526e-192
-1.08936e-191
-1.24241e-191
-1.337e-191
-7.40902e-185
-6.89487e-185
-6.05601e-185
-5.07216e-185
-4.07999e-185
-3.16894e-185
-2.38665e-185
-1.74894e-185
-1.2506e-185
-8.74764e-186
-5.99814e-186
-4.03935e-186
-2.6761e-186
-1.74679e-186
-1.12489e-186
-7.15557e-187
-4.50118e-187
-2.80284e-187
-1.72928e-187
-1.05803e-187
-6.4245e-188
-3.8744e-188
-2.32211e-188
-1.38404e-188
-8.20826e-189
-4.84646e-189
-2.85028e-189
-1.67048e-189
-9.76062e-190
-5.68812e-190
-3.30733e-190
-1.91934e-190
-1.11205e-190
-6.43444e-191
-3.71887e-191
-2.14736e-191
-1.23895e-191
-7.14313e-192
-4.11535e-192
-2.36884e-192
-1.3616e-192
-7.83295e-193
-4.51034e-193
-2.59984e-193
-1.50035e-193
-8.66982e-194
-5.01778e-194
-2.91013e-194
-1.69327e-194
-9.91524e-195
-5.89292e-195
-3.63635e-195
-2.45907e-195
-2.00347e-195
-2.12784e-195
-2.85817e-195
-4.38749e-195
-7.11811e-195
-1.17528e-194
-1.94501e-194
-3.20678e-194
-5.25316e-194
-8.5373e-194
-1.37492e-193
-2.192e-193
-3.45573e-193
-5.38127e-193
-8.26673e-193
-1.25111e-192
-1.86257e-192
-2.72308e-192
-3.90224e-192
-5.46945e-192
-7.47959e-192
-9.95089e-192
-1.2835e-191
-1.59823e-191
-1.91096e-191
-2.17831e-191
-2.3434e-191
-1.29371e-184
-1.20426e-184
-1.05818e-184
-8.86707e-185
-7.13613e-185
-5.54515e-185
-4.17772e-185
-3.06204e-185
-2.18957e-185
-1.5312e-185
-1.0494e-185
-7.06134e-186
-4.67292e-186
-3.04567e-186
-1.95772e-186
-1.24256e-186
-7.79585e-187
-4.83982e-187
-2.97592e-187
-1.81388e-187
-1.09683e-187
-6.58467e-188
-3.92725e-188
-2.32853e-188
-1.37332e-188
-8.06129e-189
-4.71202e-189
-2.74407e-189
-1.59283e-189
-9.21986e-190
-5.32398e-190
-3.06814e-190
-1.76521e-190
-1.01424e-190
-5.82155e-191
-3.3389e-191
-1.91394e-191
-1.0967e-191
-6.28238e-192
-3.59761e-192
-2.05876e-192
-1.17966e-192
-6.7691e-193
-3.89041e-193
-2.23983e-193
-1.29202e-193
-7.46928e-194
-4.32983e-194
-2.51997e-194
-1.47744e-194
-8.80715e-195
-5.47164e-195
-3.7551e-195
-3.1396e-195
-3.43748e-195
-4.72625e-195
-7.3585e-195
-1.20428e-194
-2.00081e-194
-3.32788e-194
-5.51063e-194
-9.06199e-194
-1.47777e-193
-2.38709e-193
-3.81558e-193
-6.0287e-193
-9.40511e-193
-1.44693e-192
-2.19226e-192
-3.26627e-192
-4.77758e-192
-6.84787e-192
-9.59794e-192
-1.31226e-191
-1.74522e-191
-2.25002e-191
-2.80034e-191
-3.34662e-191
-3.81321e-191
-4.10111e-191
-2.25624e-184
-2.10067e-184
-1.84649e-184
-1.54789e-184
-1.24623e-184
-9.68737e-185
-7.30053e-185
-5.35175e-185
-3.82687e-185
-2.67566e-185
-1.83298e-185
-1.23257e-185
-8.14893e-186
-5.3046e-186
-3.4044e-186
-2.15668e-186
-1.3501e-186
-8.36017e-187
-5.12554e-187
-3.11396e-187
-1.87621e-187
-1.12194e-187
-6.66313e-188
-3.93269e-188
-2.30818e-188
-1.34793e-188
-7.8365e-189
-4.53791e-189
-2.61868e-189
-1.50663e-189
-8.64605e-190