/*--------------------------------*- C++ -*----------------------------------*\
  =========                 |
  \\      /  F ield         | OpenFOAM: The Open Source CFD Toolbox
   \\    /   O peration     | Website:  https://openfoam.org
    \\  /    A nd           | Version:  11
     \\/     M anipulation  |
\*---------------------------------------------------------------------------*/
FoamFile
{
    format      ascii;
    class       volScalarField;
    location    "100";
    object      C;
}
// * * * * * * * * * * * * * * * * * * * * * * * * * * * * * * * * * * * * * //

dimensions      [0 0 0 1 0 0 0];

internalField   nonuniform List<scalar> 
440320
(
6.38461e-313
-4.47502e-312
-3.63122e-312
1.29253e-312
-2.85885e-313
-3.43378e-315
1.2501e-312
6.0057e-313
1.07006e-312
-1.88025e-312
-7.86121e-313
-1.12725e-312
-9.53764e-312
-6.31039e-312
-4.80555e-312
-6.40605e-312
3.43334e-312
-4.72923e-313
4.90773e-312
7.56262e-312
8.1527e-312
-3.61617e-312
2.51525e-312
9.14864e-312
-2.46845e-312
-6.08107e-314
-1.39641e-311
-1.00156e-311
-7.86079e-312
-1.2854e-311
-5.40672e-312
-2.91188e-312
-7.15739e-312
-1.25597e-311
-1.14891e-311
-2.70384e-312
1.93832e-312
-4.69821e-312
-8.71395e-313
6.58642e-312
1.56002e-313
6.25224e-312
5.86919e-312
-3.138e-312
2.43408e-312
-5.32955e-312
1.1019e-312
2.12982e-312
3.23642e-313
-8.69256e-313
-1.56996e-312
3.57794e-312
2.39062e-312
1.01905e-312
-1.04714e-311
-8.3346e-312
-1.12985e-311
-1.15759e-311
-1.32279e-311
-5.18402e-313
2.02018e-312
-6.68741e-312
-2.74875e-313
7.36695e-312
9.62814e-312
1.17401e-311
-2.6171e-312
-2.82654e-312
1.99954e-312
1.6833e-312
4.34953e-312
-2.29873e-312
-3.51126e-312
2.20843e-312
-2.96264e-312
-2.74351e-312
6.29837e-313
1.95915e-312
-4.96343e-312
-3.00317e-312
7.62274e-312
1.46433e-312
1.16196e-312
7.42371e-312
-3.56974e-313
2.96154e-312
-8.23562e-312
-2.29189e-311
-1.21012e-311
2.94249e-312
-1.56131e-311
-1.76584e-311
-1.32382e-311
-2.32606e-312
-9.61226e-312
-9.40498e-312
-5.99271e-312
-8.24351e-312
-2.18521e-311
-2.59143e-311
-1.15164e-311
-3.52464e-312
2.10836e-311
2.68604e-311
2.47749e-311
5.50688e-312
-7.60341e-312
2.99542e-312
-9.84829e-312
-1.53737e-311
-1.81758e-311
-2.38558e-311
-2.03917e-311
-2.74115e-311
-2.94064e-311
-1.86491e-311
-2.22022e-311
-2.1642e-311
2.71833e-312
1.76436e-311
1.04359e-311
9.61738e-312
1.05737e-311
1.1335e-311
1.7884e-311
8.93247e-312
1.56956e-311
6.12752e-312
-2.59949e-312
-2.06613e-312
1.42954e-311
-4.09677e-312
-8.35303e-312
-6.95051e-313
-4.54542e-312
-2.15372e-313
-5.01723e-312
-1.97192e-311
-2.16676e-311
-2.15129e-312
8.26121e-312
-1.31599e-311
-1.96189e-311
-1.30881e-311
-2.99688e-312
3.8145e-312
-4.11992e-312
3.87013e-312
-2.19899e-312
-1.13311e-311
4.65114e-313
2.07894e-312
7.75923e-312
1.28781e-311
7.18234e-312
4.04602e-312
6.37123e-312
5.92343e-312
-1.30781e-311
-1.67021e-311
3.56193e-311
2.02048e-311
1.71354e-311
2.28527e-311
8.28659e-312
6.95395e-312
8.32087e-312
9.27573e-312
2.25292e-311
9.08776e-312
-2.83609e-311
-1.58524e-311
-3.25671e-312
6.21854e-313
-1.10758e-311
-5.14065e-312
1.42103e-311
9.83745e-312
-5.20067e-312
-1.60346e-311
-4.39665e-311
-4.3479e-311
-2.82117e-311
-1.60404e-311
1.29558e-311
2.06099e-311
1.61294e-311
1.09088e-311
8.72197e-312
1.79927e-311
3.78872e-311
2.67669e-311
2.13926e-311
1.65548e-311
8.96098e-312
8.99333e-312
-1.80789e-312
-1.38648e-311
5.50404e-312
4.83166e-312
1.58248e-312
-6.93041e-312
-8.91665e-312
-1.99935e-312
1.98526e-311
1.54323e-311
5.97408e-312
-1.25989e-311
-1.14052e-311
1.58755e-312
-1.78462e-312
-2.00044e-311
-1.21718e-311
1.71417e-311
3.08748e-311
3.51891e-311
1.74713e-311
2.51754e-311
5.68095e-312
4.50452e-312
-1.36755e-311
-2.92357e-311
-2.81284e-311
-3.1144e-311
-2.55732e-311
-2.27574e-311
-2.72641e-311
-1.7769e-311
-2.51452e-311
-1.47758e-311
5.67687e-312
4.92024e-312
1.87274e-311
2.04907e-311
1.08722e-311
1.09075e-311
1.35976e-311
5.08376e-312
1.24356e-311
1.2962e-311
3.17576e-311
2.39791e-311
3.27488e-311
2.69586e-311
1.1379e-311
5.19397e-313
1.02621e-311
3.19589e-311
3.65385e-311
2.1521e-311
-8.42776e-312
-1.22065e-311
-1.745e-311
-1.88889e-311
-4.49822e-312
1.06659e-311
2.34875e-311
2.91268e-311
3.98936e-311
3.97262e-311
1.18946e-311
-1.57624e-311
-5.49576e-311
-6.57236e-311
-4.36546e-311
-1.24747e-311
-2.52802e-312
2.44543e-312
-9.29921e-312
1.0378e-312
2.61162e-311
4.39098e-311
3.97073e-311
3.06436e-311
3.11075e-311
2.42331e-311
3.28035e-311
1.5005e-311
1.91462e-311
1.36832e-313
-1.70041e-311
-1.14306e-311
-1.67838e-311
-3.95107e-312
-5.18381e-312
-6.61498e-312
2.44035e-312
-3.01035e-312
-6.72706e-312
-9.90035e-312
-1.63529e-311
-1.7718e-311
-1.24995e-311
1.61485e-311
2.20865e-311
2.47783e-311
1.64999e-311
3.52536e-311
6.93893e-312
-2.01366e-311
-1.58582e-311
5.12412e-312
3.45814e-311
2.93179e-311
8.89072e-312
-4.681e-312
-1.1823e-311
-5.51811e-312
-5.34158e-312
-1.29175e-312
1.09803e-311
-1.17226e-311
-2.25632e-311
-1.08173e-311
-4.38573e-312
3.58082e-312
1.78328e-311
2.05626e-312
3.56562e-311
7.35295e-311
4.4073e-311
3.77938e-311
3.73608e-311
5.38399e-311
4.18911e-311
2.33105e-311
3.48184e-312
-8.3531e-313
-8.65152e-312
-3.96323e-312
1.94116e-311
1.28223e-311
-1.74217e-311
-1.60043e-311
-3.0803e-312
1.53096e-312
-1.02835e-311
-4.70156e-312
2.30531e-311
5.55953e-311
7.52771e-311
6.59686e-311
1.94684e-311
-2.05704e-311
-4.31104e-311
-4.98801e-311
-3.07559e-311
-1.50239e-311
-2.16978e-311
-4.01877e-311
-3.96594e-311
-1.4922e-311
-3.38271e-312
-2.0148e-311
-2.57756e-312
-1.31769e-312
1.73291e-311
1.67682e-311
1.93879e-311
2.27429e-311
9.94035e-312
7.19561e-312
6.65717e-312
8.80081e-312
-1.73783e-311
-1.42726e-311
2.35744e-311
1.34744e-311
-1.19546e-311
-2.36047e-311
-2.17402e-311
-1.71732e-311
-1.4205e-311
1.09446e-312
-1.29659e-311
-1.99129e-311
-2.57732e-311
-1.43833e-311
-4.96293e-312
1.56344e-312
2.96118e-311
5.79086e-311
7.28522e-311
5.85043e-311
2.93703e-311
2.6596e-311
3.02282e-311
3.16326e-311
2.75559e-311
3.96362e-313
-1.48151e-311
-3.17193e-311
-4.00699e-311
-2.90182e-311
-8.47333e-312
-7.9259e-312
7.75867e-312
2.71302e-312
3.37575e-311
5.88649e-311
1.47401e-311
3.7392e-311
2.12143e-311
4.04314e-311
4.46489e-311
3.1727e-311
2.98285e-311
-1.06354e-312
-2.14219e-311
-2.01047e-311
1.48152e-311
3.31821e-311
1.04508e-312
-2.33282e-311
-3.52527e-311
-3.50349e-311
-2.89094e-311
-3.68547e-311
-4.0898e-311
-1.55079e-311
2.3204e-311
5.52146e-311
7.48659e-311
6.61243e-311
2.42322e-311
-2.23751e-311
-3.05699e-311
-1.9935e-311
-1.52008e-311
-1.17876e-311
-2.29562e-311
-2.80092e-311
-2.03536e-311
-4.15291e-311
-5.06288e-311
-3.44202e-311
-1.37979e-311
-1.14378e-311
2.00065e-311
2.27817e-311
1.64857e-311
7.42918e-312
2.09139e-311
1.81355e-311
1.57763e-312
1.5614e-311
5.27423e-311
1.31797e-311
-1.53965e-311
-5.07371e-312
1.57171e-311
-2.41073e-312
-7.59555e-312
-3.8233e-312
-3.19575e-311
-5.10833e-311
-7.41434e-311
-5.91698e-311
-3.33408e-311
-8.35555e-312
-6.87731e-312
-3.24967e-311
-4.07562e-311
-4.67214e-311
-3.44557e-311
5.39685e-312
3.37331e-311
3.96245e-311
2.41663e-311
9.45055e-312
4.38769e-312
-8.79882e-312
8.77462e-312
9.60631e-312
7.04257e-312
-1.20528e-311
4.87865e-312
3.39129e-311
5.17563e-311
9.23963e-311
-6.45993e-311
-4.77501e-311
-4.98849e-311
-3.47652e-311
-1.92104e-311
-6.10596e-312
2.4406e-311
3.85989e-311
1.57098e-311
-1.58836e-311
-1.8378e-311
1.17517e-311
1.79312e-311
-1.05804e-311
-3.6493e-311
-2.87183e-311
6.38821e-312
-1.05077e-311
-5.93226e-311
-7.39919e-311
-6.58335e-311
-3.56181e-311
2.49013e-311
6.18385e-311
5.60613e-311
2.45814e-311
-2.26205e-311
-3.20758e-311
-1.66658e-311
1.74422e-311
2.20142e-311
1.67645e-312
-1.2872e-311
-1.9857e-311
-3.32859e-311
-5.01226e-311
-2.12538e-311
-1.00057e-311
1.34389e-311
2.55392e-312
8.57646e-312
5.2425e-312
1.83975e-311
2.77128e-311
1.13166e-311
9.49404e-312
1.19489e-311
-1.15131e-311
1.57634e-311
4.76538e-311
5.17696e-311
3.93718e-311
2.70128e-311
3.08995e-311
1.67392e-311
-2.31183e-311
-6.0358e-311
-4.82187e-311
-2.90842e-311
-1.71475e-311
-6.20548e-311
-1.17753e-310
-1.53339e-310
-1.37859e-310
-8.5978e-311
-3.48294e-311
5.24008e-312
1.66622e-311
-3.93129e-312
-6.06524e-312
1.98259e-311
3.73741e-311
6.5216e-311
7.65101e-311
4.75653e-311
2.36648e-311
5.01974e-312
1.98575e-311
2.18121e-311
4.01122e-311
4.46085e-312
-3.17527e-311
-3.99055e-311
-5.40451e-311
-3.33843e-311
-1.99215e-311
2.40378e-312
4.70678e-311
3.65755e-311
-1.40344e-311
-2.51411e-311
1.17616e-312
2.93594e-311
1.2292e-311
-3.17775e-311
-1.62893e-311
3.19188e-311
2.18615e-311
-1.3626e-311
-5.14512e-311
-7.45831e-311
-7.89898e-311
-3.66108e-311
1.03095e-311
3.3407e-311
4.68508e-311
1.22526e-311
-2.67755e-311
-3.33037e-311
-1.93215e-312
1.40507e-311
1.88081e-311
1.39519e-311
2.02526e-311
2.81065e-311
-1.00949e-311
-1.89149e-311
-1.73364e-311
-2.81653e-312
-3.30026e-312
1.49388e-311
1.73864e-311
1.17179e-311
1.76899e-311
-1.16544e-312
-3.01875e-311
-4.48799e-311
-1.41518e-311
2.58788e-311
4.28974e-311
3.58156e-311
2.92648e-311
3.83445e-311
5.00164e-311
7.55896e-311
4.57718e-311
1.06138e-311
3.07088e-311
5.95539e-311
6.67567e-311
1.99414e-311
-2.8291e-311
-6.47361e-311
-5.32205e-311
-3.1773e-311
-3.93439e-311
-3.99323e-311
-4.51899e-311
-7.00056e-311
-7.45564e-311
-2.28974e-311
3.01816e-311
7.11305e-311
7.55627e-311
4.34137e-311
1.17244e-311
-1.59122e-312
-1.77524e-311
-1.87952e-311
-1.9337e-311
3.48923e-311
5.25838e-311
4.16878e-311
3.09248e-311
1.69725e-311
-3.09284e-311
-3.48664e-311
-1.43417e-312
2.21834e-311
1.083e-311
3.42703e-312
1.91859e-311
4.88437e-311
2.98547e-311
-1.91144e-311
-2.08529e-311
1.52463e-311
5.00997e-311
6.41146e-311
3.54802e-311
-2.18731e-311
-7.00679e-311
-7.50394e-311
-4.01749e-311
-2.2819e-312
4.58212e-311
4.90738e-311
7.94342e-312
-5.64517e-311
-6.38668e-311
-4.10967e-311
-6.20359e-313
1.27098e-311
2.62578e-311
4.95049e-311
2.72528e-311
-1.523e-311
-2.31928e-311
-6.42206e-312
-8.33045e-313
2.59847e-311
1.61349e-311
8.00935e-312
-6.80602e-312
-2.79163e-311
-4.15446e-311
-4.36801e-311
-3.60373e-311
-8.33856e-312
-3.41109e-312
-1.95218e-311
-2.5772e-311
-2.01434e-311
1.30435e-311
6.87026e-311
6.17632e-311
5.22096e-311
8.19804e-311
1.09949e-310
1.0958e-310
1.0518e-310
9.99465e-311
9.13969e-311
8.03668e-311
4.98074e-311
-9.85297e-312
-4.71582e-311
-9.44925e-311
-1.35222e-310
-1.51757e-310
-1.01754e-310
-3.95627e-311
8.8762e-312
4.67404e-311
3.8049e-311
-8.42231e-312
-2.1072e-311
-2.27093e-311
-1.565e-311
-1.77043e-311
-7.68454e-312
4.44783e-311
6.19128e-311
7.67654e-311
7.38566e-311
7.59987e-312
-1.44068e-311
3.95579e-312
2.05073e-311
3.25924e-311
1.71559e-311
2.85312e-311
6.22251e-311
4.50235e-311
5.77254e-312
-2.38438e-311
-2.2916e-312
3.18074e-311
7.2013e-311
5.83477e-311
2.09826e-311
-2.87094e-311
-7.14893e-311
-8.64737e-311
-5.16937e-311
6.6713e-312
6.09353e-311
3.92315e-311
-4.31055e-311
-6.22958e-311
-5.2512e-311
-2.36812e-311
-1.29309e-311
-2.95269e-312
7.76531e-312
1.80595e-311
-2.53537e-311
-3.06936e-311
-2.29708e-311
-1.29412e-311
4.7041e-312
-3.79973e-312
-2.25609e-312
-6.37907e-312
-3.52628e-312
-3.06083e-312
-1.73202e-311
-5.19264e-311
-5.04252e-311
-4.71426e-311
-6.1753e-311
-7.23326e-311
-1.18875e-310
-8.88311e-311
2.22167e-311
5.64048e-311
4.85789e-311
4.81036e-311
4.43814e-311
2.85562e-311
5.42591e-311
1.1757e-310
1.40051e-310
1.39105e-310
9.53026e-311
4.18515e-311
2.40618e-311
-4.82234e-311
-1.21452e-310
-1.57867e-310
-1.04551e-310
-5.12749e-311
-2.04302e-311
3.15242e-311
3.50303e-311
1.55501e-311
-5.30842e-312
-9.69602e-312
-2.42769e-311
1.07066e-311
-1.31147e-310
-7.32902e-311
-2.90667e-311
1.08322e-311
4.87432e-311
3.81143e-311
3.87869e-311
2.72275e-311
1.89517e-311
8.12165e-312
-1.21874e-311
-1.63685e-312
3.43932e-311
4.45532e-311
1.6259e-311
-3.71824e-311
-2.08329e-311
6.21363e-312
3.14855e-311
2.65539e-311
2.92497e-311
1.17655e-311
-3.88784e-311
-7.47751e-311
-6.78427e-311
-2.5646e-311
3.56377e-311
6.82179e-311
2.30973e-311
-1.67468e-311
-3.11312e-311
-2.97356e-311
-2.38423e-311
-2.22391e-311
-2.40802e-311
8.83688e-313
-1.13778e-311
-2.51484e-311
-4.42111e-311
-2.72999e-311
-2.01559e-311
-2.11627e-311
4.28942e-312
2.28027e-311
3.75653e-311
3.99064e-311
2.61137e-312
-3.53045e-311
-1.83478e-311
-2.30173e-311
-4.51489e-311
-8.9812e-311
-1.81705e-310
-1.56076e-310
-2.72421e-311
5.16139e-311
1.95152e-311
-2.97442e-311
-1.02474e-310
-1.15357e-310
-5.83795e-311
2.43004e-311
9.04701e-311
1.07716e-310
9.78533e-311
1.0067e-310
9.87326e-311
4.21494e-311
-3.92826e-311
-8.74972e-311
-5.74921e-311
-4.44629e-311
-4.92331e-311
-1.2811e-311
2.4723e-311
3.22829e-311
2.31829e-311
8.64094e-312
-2.59755e-311
-2.59e-311
-8.7457e-311
-1.16932e-310
-9.04355e-311
-4.21262e-311
-4.84493e-314
2.00549e-311
2.65486e-311
1.03651e-311
5.77754e-312
-1.84992e-311
-4.53933e-311
-2.86152e-311
3.14279e-311
5.16856e-311
4.2049e-312
-5.08275e-311
-2.85556e-311
1.52996e-311
3.41819e-311
2.68046e-311
2.21754e-311
3.82817e-311
1.04423e-311
-2.33957e-311
-5.95099e-311
-5.43181e-311
7.54911e-313
5.72664e-311
6.19849e-311
1.49473e-311
-2.68085e-311
-2.05529e-311
-2.74711e-311
-2.0522e-311
-9.7525e-312
-3.95907e-312
-3.71675e-312
-8.39095e-312
-2.21446e-311
-3.21865e-311
-1.30839e-311
-1.78984e-311
2.6073e-311
3.49661e-311
6.29587e-311
5.51705e-311
2.19171e-311
1.22701e-311
4.56753e-311
6.34125e-311
5.57766e-311
-2.61424e-311
-1.54385e-310
-1.52596e-310
-4.22319e-311
3.70905e-311
1.371e-311
-6.97523e-311
-1.76567e-310
-2.00555e-310
-1.38452e-310
-7.27767e-311
-3.90339e-313
5.44468e-311
7.58034e-311
1.06307e-310
1.13421e-310
8.0866e-311
2.77351e-311
-1.72336e-311
-4.30454e-311
-7.69052e-311
-9.74966e-311
-6.42216e-311
-2.26163e-311
2.62901e-312
-6.48986e-312
-3.14261e-311
-5.68507e-311
-4.49049e-311
-2.28144e-311
-4.49479e-311
-5.83933e-311
-4.21705e-311
-2.70305e-311
-1.40467e-311
4.93685e-312
-4.76866e-312
-7.03088e-313
-1.94314e-311
-4.15208e-311
-3.34374e-311
3.91112e-311
6.05509e-311
2.09387e-311
-3.93155e-311
-3.65297e-311
1.50343e-311
5.81534e-311
4.51623e-311
2.14662e-311
3.27428e-311
3.91249e-311
-6.11728e-313
-5.23258e-311
-7.94815e-311
-2.3217e-311
3.91617e-311
4.53541e-311
2.55518e-311
-1.6146e-311
-2.01412e-311
-2.64703e-311
-1.83171e-311
-1.04799e-312
-1.33256e-311
-5.84057e-312
1.01336e-312
-9.49969e-313
-2.88841e-311
-2.98625e-311
-3.46895e-311
5.71685e-312
9.57753e-312
5.39313e-311
7.31579e-311
5.42288e-311
4.94621e-311
4.92643e-311
1.1053e-310
1.51404e-310
8.64651e-311
-8.23125e-311
-1.058e-310
-2.14105e-311
5.02364e-311
4.19949e-311
-8.36645e-312
-9.5653e-311
-1.45567e-310
-1.54895e-310
-1.32057e-310
-8.32026e-311
-7.44638e-312
3.84727e-311
6.74554e-311
8.22008e-311
8.33427e-311
6.90882e-311
4.84086e-311
5.60929e-312
-5.30285e-311
-1.17857e-310
-1.23211e-310
-6.72344e-311
-1.76792e-311
-4.70767e-313
-1.71474e-311
-2.61085e-311
-7.92285e-311
-2.21315e-311
1.00763e-311
2.43738e-311
2.71335e-311
8.03044e-312
6.27467e-312
2.21582e-311
1.50508e-311
1.28718e-311
2.68205e-312
-1.66161e-311
-3.33413e-311
1.89234e-311
6.14285e-311
3.4523e-311
-2.741e-311
-6.70596e-311
-2.56334e-311
3.49215e-311
3.29143e-311
-4.14863e-312
3.10396e-311
5.2477e-311
1.51439e-311
-4.90828e-311
-8.5782e-311
-4.97371e-311
1.16124e-311
3.13325e-311
2.86909e-311
1.30238e-312
-4.35391e-312
-1.15746e-311
-2.34425e-311
-1.79056e-311
-3.35275e-311
-1.84066e-311
-4.51497e-312
-2.01035e-311
-2.84758e-311
-3.90742e-311
-4.38307e-311
-2.8428e-311
-2.84924e-311
2.12386e-311
5.82371e-311
5.96917e-311
1.82175e-311
7.68103e-312
6.84594e-311
1.70118e-310
1.47846e-310
-4.79035e-312
-7.40167e-311
-2.41564e-311
4.00473e-311
8.50851e-311
7.44439e-311
3.0357e-311
-4.20727e-311
-1.15653e-310
-1.39774e-310
-1.17491e-310
-5.83974e-311
-2.63035e-311
-6.52774e-312
4.84758e-311
1.06721e-310
1.22252e-310
1.09184e-310
8.96742e-311
3.09458e-311
-5.04968e-311
-7.02971e-311
-5.40331e-311
-1.05224e-311
-2.19133e-311
-2.07398e-311
-1.29284e-311
-3.1419e-311
-1.86549e-311
1.45902e-311
2.06458e-311
3.00335e-311
1.75104e-311
2.41408e-311
3.00439e-311
4.85392e-311
2.8904e-311
1.4759e-311
-4.48427e-312
-3.09227e-311
-3.07114e-312
5.36088e-311
5.12797e-311
-1.7676e-311
-7.52175e-311
-5.3848e-311
-5.56448e-312
4.81805e-313
-2.58891e-311
2.36569e-311
6.01871e-311
3.54067e-311
-1.73556e-311
-6.29947e-311
-6.71845e-311
-2.06353e-311
2.08179e-311
1.80689e-311
7.84949e-313
4.89895e-312
1.48885e-312
-1.48541e-311
-2.83052e-311
-2.69178e-311
-1.41716e-311
-1.70774e-311
-3.20823e-311
-1.18363e-311
-1.85866e-311
-2.50556e-311
-3.11453e-311
-5.13683e-311
-1.65942e-311
3.86124e-311
4.07752e-311
-1.28552e-311
-1.91209e-311
3.04904e-311
1.47618e-310
1.84779e-310
5.72726e-311
-4.35874e-311
-3.91727e-311
1.55863e-311
6.76026e-311
8.48182e-311
7.69255e-311
3.62469e-311
-3.22522e-311
-1.02178e-310
-1.28968e-310
-1.17711e-310
-1.31616e-310
-1.01211e-310
-2.12749e-311
7.97576e-311
1.21773e-310
1.51647e-310
1.72437e-310
1.22162e-310
4.61604e-311
-5.64716e-312
-2.09661e-311
-1.49211e-311
-2.87151e-311
-4.84059e-311
-5.71163e-311
-1.90536e-311
2.52653e-311
1.7079e-311
-2.92594e-312
-1.4387e-311
6.97947e-312
1.24905e-311
3.16715e-311
4.95855e-311
4.89303e-311
2.92148e-311
1.32662e-311
7.05064e-312
1.73506e-311
4.84379e-311
5.01202e-311
7.43036e-312
-3.99205e-311
-4.61345e-311
-2.22196e-311
-1.78303e-311
-1.44741e-311
1.24088e-311
6.55726e-311
5.39995e-311
5.20198e-312
-3.62293e-311
-7.24541e-311
-3.96581e-311
1.8457e-311
1.00859e-311
-4.6633e-312
2.64919e-312
3.75713e-312
-1.54517e-311
-2.51464e-311
-1.88004e-311
-1.99669e-311
-2.49308e-311
-2.14843e-311
-5.31042e-312
-1.56712e-311
-3.14041e-311
-3.17775e-311
-5.68977e-311
-3.51713e-311
1.53653e-311
3.11121e-311
-1.36666e-311
-1.79903e-311
1.26441e-311
1.33553e-310
2.14952e-310
1.409e-310
3.16033e-311
-1.22185e-311
6.35456e-312
2.30676e-311
5.03172e-311
7.84951e-311
9.54218e-311
5.06449e-311
-4.54525e-311
-8.32812e-311
-1.27176e-310
-1.90801e-310
-1.97469e-310
-1.25832e-310
-3.03898e-311
3.37821e-311
1.01715e-310
1.48752e-310
1.51962e-310
1.14384e-310
5.18329e-311
8.20739e-312
-2.29665e-311
-3.95672e-311
-7.75047e-311
-9.05802e-311
-6.91007e-311
4.15405e-311
2.59504e-311
-2.61077e-311
-1.88077e-311
-3.86432e-311
-2.68882e-311
5.48256e-313
2.64545e-311
6.96612e-311
6.12868e-311
2.6115e-311
8.19791e-312
2.37498e-311
1.86955e-311
3.33208e-311
2.54486e-311
1.40209e-312
-2.14235e-311
3.17819e-313
-7.66207e-312
-2.26699e-311
-1.13706e-311
4.24548e-311
5.19359e-311
5.21294e-312
-4.08756e-311
-5.26027e-311
-3.06973e-311
4.78062e-312
1.61022e-311
-6.93546e-312
-3.77992e-312
4.75372e-312
-2.55114e-312
-2.13303e-311
-2.4441e-311
-2.97628e-311
-2.26443e-311
-1.14611e-311
-1.9967e-311
-1.81779e-311
-3.65985e-311
-3.88776e-311
-7.44831e-311
-6.44408e-311
6.6575e-312
3.99137e-311
5.04656e-312
-3.56387e-311
-5.57045e-311
7.76905e-311
2.20616e-310
2.1282e-310
1.10721e-310
2.74734e-311
-1.34023e-311
-1.95806e-311
1.69883e-311
8.40916e-311
1.3335e-310
8.83213e-311
1.63521e-311
-2.06688e-311
-7.99378e-311
-1.64695e-310
-2.24131e-310
-1.99294e-310
-1.19483e-310
-4.76904e-311
5.07267e-312
6.70162e-311
1.02058e-310
1.24882e-310
1.14594e-310
9.17034e-311
4.74833e-311
-2.91464e-312
-3.56987e-311
-3.58535e-311
-7.72671e-311
7.91067e-311
4.13469e-311
2.48832e-311
3.00864e-311
5.14773e-312
-1.87637e-311
-2.44277e-311
1.91273e-313
2.14234e-311
3.95929e-311
3.95482e-312
-1.45553e-311
6.74282e-312
2.25017e-311
1.76161e-311
2.37639e-311
1.23506e-311
-4.28562e-312
-5.41812e-312
-9.8668e-312
-3.78932e-311
-2.88601e-311
2.91854e-311
5.79562e-311
1.70615e-311
-3.55355e-311
-6.03727e-311
-4.31378e-311
-9.72615e-312
4.41712e-311
1.76689e-311
-8.30561e-312
-1.33779e-311
-1.73305e-312
4.69661e-312
-1.70727e-311
-1.53518e-311
-2.87372e-311
-2.03888e-311
-1.42391e-311
4.42055e-312
-3.47645e-312
-1.79295e-311
-7.70905e-311
-5.71148e-311
-1.65934e-312
3.37477e-311
2.14812e-311
-7.06906e-311
-1.41291e-310
-3.3914e-311
1.86336e-310
2.50003e-310
1.77724e-310
5.0008e-311
-5.58399e-311
-6.72512e-311
-1.19965e-311
7.75994e-311
1.34525e-310
1.12139e-310
8.92474e-311
4.50967e-311
-1.52819e-313
-7.5141e-311
-1.64661e-310
-1.81037e-310
-1.2065e-310
-6.52262e-311
-4.7918e-311
-4.577e-312
3.01058e-311
6.21764e-311
9.13147e-311
1.21237e-310
9.6162e-311
7.33474e-311
4.35121e-311
3.34711e-311
1.85521e-311
3.6376e-311
5.34752e-311
5.50086e-311
3.93038e-311
5.90315e-312
-9.0384e-312
-2.41932e-311
-5.54656e-312
-2.15057e-311
-1.32836e-312
-1.26205e-311
3.86443e-312
2.11744e-311
3.38624e-311
7.27033e-312
1.02285e-311
8.25148e-312
6.36881e-312
-5.10115e-312
-1.25603e-311
-3.55233e-311
-2.98271e-311
3.50156e-311
8.36853e-311
4.98372e-311
-1.87835e-311
-5.49183e-311
-5.28314e-311
-2.7838e-312
6.12974e-311
1.94962e-311
-1.94845e-311
-4.21545e-311
-1.49341e-311
1.64114e-311
-1.11135e-311
1.92336e-312
-2.34965e-312
-8.75821e-312
4.86227e-312
3.06169e-311
2.73714e-311
1.0403e-311
-4.77686e-311
-3.68762e-311
-1.38391e-311
2.75571e-311
2.53833e-311
-8.77656e-311
-1.89152e-310
-1.3994e-310
9.38297e-311
2.26094e-310
2.10696e-310
9.11242e-311
-3.48116e-311
-8.37008e-311
-3.92868e-311
5.80604e-311
1.26624e-310
1.21294e-310
1.10865e-310
8.88287e-311
6.94375e-311
3.43775e-311
-6.93533e-311
-1.16834e-310
-8.34134e-311
-6.22166e-311
-7.01829e-311
-7.85696e-311
-4.10413e-311
-1.59598e-311
3.59521e-311
5.87083e-311
4.83073e-311
6.2623e-311
4.35341e-311
2.18946e-311
3.59449e-311
-6.6561e-311
-7.45277e-312
-1.74643e-311
-1.03423e-311
-9.66037e-312
-1.39629e-311
-4.26663e-311
-1.9616e-311
-2.36187e-311
-2.17974e-311
-4.47713e-312
8.82429e-312
1.94834e-311
2.68858e-311
1.93291e-311
1.11976e-311
-4.68595e-312
-2.83132e-312
8.51465e-312
-7.82851e-312
-2.61562e-311
-3.03074e-311
3.14094e-311
8.64992e-311
6.68827e-311
-1.14462e-311
-3.04145e-311
-3.75069e-311
-5.97533e-312
2.46567e-311
2.91695e-312
-2.02714e-311
-3.14244e-311
-2.36694e-311
-1.05905e-311
-2.46394e-311
-1.29613e-311
1.63245e-311
6.12714e-312
5.0309e-312
2.49753e-311
2.48284e-311
2.92084e-311
-2.47125e-311
-7.94421e-311
-4.19933e-311
3.34548e-311
3.54366e-311
-4.28716e-311
-1.97004e-310
-2.09806e-310
-6.75317e-312
1.82144e-310
2.12029e-310
1.23264e-310
8.49631e-312
-7.12372e-311
-5.61997e-311
1.40138e-311
8.94093e-311
9.20392e-311
7.25358e-311
9.01511e-311
1.21248e-310
8.58988e-311
-3.96844e-312
-8.03212e-311
-6.11279e-311
-3.45779e-311
-3.95469e-311
-7.51822e-311
-4.90139e-311
-2.42024e-311
2.0827e-311
2.96372e-311
8.93461e-312
4.06374e-312
-2.0745e-311
-2.38996e-311
-9.90304e-312
-8.14793e-311
-9.14063e-312
4.74374e-312
4.49066e-312
2.66637e-311
2.93639e-312
-2.44578e-311
-9.52583e-312
-6.77008e-312
-2.83692e-311
-3.29854e-311
-1.00325e-311
2.38711e-312
1.98138e-311
2.37162e-311
1.57044e-311
-1.14324e-311
-1.48753e-311
1.03814e-311
1.43077e-311
-1.73099e-311
-2.58812e-311
2.63735e-312
5.25972e-311
5.80466e-311
-1.29147e-313
-1.43829e-311
-2.03971e-311
-2.23439e-311
-1.50865e-311
-2.55662e-312
3.46939e-312
7.01185e-312
-1.33433e-311
-2.69767e-311
-3.82424e-311
-2.81759e-311
6.44047e-312
-5.05444e-312
-1.92918e-311
-1.22254e-311
3.35718e-312
2.75308e-311
-2.44196e-311
-9.13833e-311
-5.74308e-311
3.25066e-311
6.93914e-311
8.52641e-312
-1.78748e-310
-2.22459e-310
-5.94842e-311
1.38537e-310
1.83669e-310
1.37617e-310
4.16112e-311
-4.93013e-311
-6.64959e-311
-1.79804e-311
3.89182e-311
3.28497e-311
1.66706e-311
6.47936e-311
1.16611e-310
7.31738e-311
-2.47907e-311
-6.95493e-311
-5.30265e-311
-8.91651e-313
2.85998e-311
-8.65063e-312
-2.22262e-311
7.97454e-312
1.55873e-311
9.5637e-312
-1.00449e-311
-3.74933e-311
-4.43141e-311
-9.22443e-312
4.68839e-311
-8.90146e-311
-2.69082e-311
-3.08895e-312
2.66514e-311
7.28118e-311
7.22637e-311
3.50723e-311
9.72834e-312
8.79374e-312
-2.41444e-312
-3.51997e-312
-9.7872e-312
7.81164e-312
4.24009e-311
4.31845e-311
1.34449e-311
-1.49212e-311
-1.43016e-311
-1.30894e-312
1.56539e-311
-5.82491e-312
-2.75176e-311
-9.03334e-312
3.44747e-311
5.43307e-311
5.72546e-312
-2.48235e-311
-3.94582e-311
-4.98511e-311
-2.25887e-311
-6.77048e-313
1.09764e-311
1.65772e-311
-1.01936e-311
-2.00137e-311
-2.22588e-311
-1.82182e-311
-1.9207e-311
-3.12775e-311
-4.61167e-311
-2.97503e-311
1.57598e-311
3.96308e-311
-2.11893e-312
-5.24038e-311
-4.97984e-311
1.07594e-311
9.76205e-311
4.44032e-311
-1.40855e-310
-2.32042e-310
-1.02938e-310
9.25342e-311
1.48027e-310
1.21108e-310
5.56628e-311
-1.26229e-311
-4.07324e-311
3.25894e-312
4.33576e-311
2.50452e-311
1.7283e-311
4.84458e-311
7.75761e-311
5.4662e-311
-3.97268e-311
-7.21917e-311
-3.82579e-311
8.65891e-312
4.37765e-311
3.41919e-311
-1.56096e-312
2.56587e-312
-5.21078e-312
1.89395e-311
1.08776e-311
2.52941e-312
-5.97211e-312
4.25541e-312
1.03805e-311
-1.01625e-310
-1.96044e-311
8.33585e-312
5.95712e-311
1.05995e-310
1.20526e-310
8.31478e-311
5.24774e-311
3.63433e-311
2.21582e-311
5.18525e-312
1.68736e-311
3.68923e-311
5.05229e-311
5.43281e-311
1.31684e-311
-9.22917e-312
-6.72081e-312
-6.93679e-312
-5.62128e-313
-1.31139e-311
-2.35157e-311
-3.71992e-312
4.71555e-311
5.11277e-311
-5.58372e-312
-2.35284e-311
-2.62489e-311
-2.61822e-311
-9.43084e-312
-2.15288e-311
-2.39692e-311
-2.06586e-311
-3.09157e-311
5.25778e-312
-3.83317e-312
-1.93695e-311
-3.21166e-311
-4.24482e-311
-4.73804e-311
-3.627e-311
1.05491e-311
5.08216e-311
1.41155e-311
-4.18361e-311
-5.78463e-311
-3.06104e-311
8.78888e-311
8.9471e-311
-9.03196e-311
-2.56825e-310
-1.82323e-310
-2.80909e-311
6.96468e-311
9.25297e-311
8.27284e-311
2.98175e-311
-7.99692e-312
2.70377e-311
6.23232e-311
6.16727e-311
3.48288e-311
2.82158e-311
5.30904e-311
5.20589e-311
-1.13494e-311
-5.02541e-311
-3.42786e-311
-1.26173e-311
2.75903e-311
3.19706e-311
2.82222e-311
8.5423e-312
9.73052e-312
3.09978e-311
4.68267e-311
1.2494e-311
1.21059e-312
-6.06846e-312
-3.49783e-311
-7.7353e-311
-8.1307e-311
-7.17894e-311
-2.61263e-311
2.44483e-311
7.21381e-311
5.81343e-311
4.4134e-311
2.84753e-311
-4.94229e-312
-2.21889e-311
4.20299e-312
2.08903e-311
2.97062e-311
2.93756e-311
1.68053e-311
5.0534e-312
-3.33964e-312
3.71469e-313
1.74251e-311
-6.25295e-314
-4.18353e-311
-1.04552e-311
2.74741e-311
4.71319e-311
-2.40561e-312
-4.95702e-312
5.2014e-312
9.10377e-312
-5.17429e-312
-1.75999e-311
-3.09049e-311
-3.72948e-311
-2.68021e-311
9.53673e-312
-4.25325e-313
-2.35222e-311
-3.33486e-311
-2.18071e-311
-3.22684e-311
-3.1547e-311
-4.09432e-312
4.15764e-311
2.69436e-311
-3.93213e-311
-8.52684e-311
-6.32675e-311
6.96814e-311
1.09439e-310
-4.11747e-311
-2.35092e-310
-2.34768e-310
-1.28777e-310
-4.74326e-312
6.73575e-311
8.852e-311
2.11826e-311
-1.61659e-311
1.46372e-311
7.16903e-311
8.61223e-311
5.11927e-311
2.74521e-311
5.98994e-311
7.29124e-311
2.56529e-311
-4.7503e-311
-6.26825e-311
-1.34026e-311
5.60877e-311
6.88907e-311
9.206e-311
8.1924e-311
6.19846e-311
6.08151e-311
7.08098e-311
3.91221e-311
7.18982e-312
-5.62973e-311
-9.66381e-311
2.08475e-311
-4.71516e-311
-1.11187e-310
-1.00559e-310
-4.18133e-311
2.68069e-311
5.45925e-311
3.10566e-311
7.96493e-312
-4.5943e-311
-4.98626e-311
-3.43661e-311
-1.96307e-311
-4.15732e-313
2.11502e-311
3.15135e-311
2.11173e-311
-1.19242e-311
7.85018e-312
2.72655e-311
1.48008e-311
-4.56026e-311
-2.32033e-311
7.4959e-312
6.33339e-311
3.60678e-311
1.17973e-311
2.32563e-312
-4.45801e-314
-5.05177e-312
-1.18174e-311
-1.74365e-311
-2.67935e-311
-2.71756e-312
3.75971e-312
-2.7949e-312
-2.61785e-311
-1.82864e-311
-1.39583e-311
-3.45991e-311
-3.47988e-311
-4.82928e-312
4.52817e-311
3.78535e-311
-3.03056e-311
-9.12382e-311
-7.50377e-311
4.70607e-311
1.07189e-310
1.33425e-311
-1.57886e-310
-2.05685e-310
-1.36051e-310
-3.90337e-311
4.39746e-311
6.22193e-311
-1.35881e-311
-4.84865e-311
-8.3809e-312
5.27717e-311
9.39104e-311
7.40563e-311
5.38244e-311
6.96647e-311
9.31948e-311
1.13734e-311
-6.47996e-311
-9.93153e-311
-2.48966e-311
3.455e-311
9.65802e-311
1.05166e-310
9.30323e-311
9.33014e-311
8.05068e-311
7.36973e-311
4.68959e-311
-5.82947e-312
-6.29094e-311
-5.73468e-311
7.09637e-311
2.78044e-311
-4.10232e-311
-9.4478e-311
-7.81819e-311
-1.1846e-311
2.44768e-311
3.02787e-311
1.8397e-311
-3.29355e-311
-4.88634e-311
-5.34042e-311
-5.15662e-311
-1.31133e-311
2.26429e-311
3.71911e-311
2.24906e-311
7.28643e-313
-5.50611e-312
1.06159e-311
2.83635e-311
-1.66123e-311
-2.13537e-311
1.34719e-311
7.14097e-311
5.1405e-311
-3.18681e-312
-2.19438e-311
-2.59836e-311
-2.37926e-311
-9.93924e-312
-8.92221e-312
-3.12444e-312
-6.11893e-312
-8.27338e-312
-1.77057e-311
-2.88056e-311
-2.54541e-311
-2.32116e-311
-3.92e-311
-4.75738e-311
-9.06283e-312
4.31234e-311
4.96779e-311
-1.76672e-311
-9.0402e-311
-8.44878e-311
1.38413e-311
1.06829e-310
5.71922e-311
-9.78655e-311
-1.63955e-310
-1.28555e-310
-5.81135e-311
-1.55983e-312
2.82868e-311
-1.62413e-311
-6.99941e-311
-1.71408e-311
5.12842e-311
9.73617e-311
8.91398e-311
7.32374e-311
7.64758e-311
9.95866e-311
4.67095e-311
-3.77188e-311
-8.56591e-311
-7.19124e-311
-2.41716e-311
1.86743e-311
4.15107e-311
4.73209e-311
8.0619e-311
7.68932e-311
8.31608e-311
8.20149e-311
6.50907e-311
1.40183e-311
-2.57785e-312
1.27975e-310
8.33932e-311
2.21624e-311
-4.64069e-311
-7.8454e-311
-5.78922e-311
-1.50374e-311
5.10758e-311
6.8238e-311
5.04665e-311
-1.62095e-311
-5.77305e-311
-5.16585e-311
-1.93278e-311
1.98812e-311
3.00706e-311
2.53285e-311
-6.60377e-313
-7.80413e-312
2.97603e-311
3.11724e-311
-7.22496e-312
-3.41107e-311
-1.73998e-312
4.99049e-311
4.11277e-311
-3.26152e-312
-2.53831e-311
-4.61802e-311
-4.78468e-311
-3.37009e-311
-3.35848e-311
7.39869e-313
-1.87318e-311
-1.7079e-311
-3.56375e-311
-3.83735e-311
-3.53923e-311
-2.95431e-311
-5.54136e-311
-7.96304e-311
-4.38203e-311
3.86388e-311
6.86372e-311
1.86274e-311
-7.53833e-311
-1.18362e-310
-2.54323e-311
9.88999e-311
8.02147e-311
-6.04078e-311
-1.58817e-310
-1.66e-310
-1.14475e-310
-5.13444e-311
-3.38435e-312
-2.20872e-312
-6.28637e-311
-2.67138e-311
7.34601e-311
1.39738e-310
1.06528e-310
6.99208e-311
8.26042e-311
8.33859e-311
9.3749e-311
2.88015e-311
-6.20141e-311
-9.34475e-311
-9.71549e-311
-8.37446e-311
-3.44887e-311
-1.85812e-312
3.54535e-311
3.86554e-311
4.91706e-311
5.00941e-311
6.19229e-311
4.32298e-311
2.94998e-311
1.01588e-310
9.50499e-311
6.42556e-311
-8.99615e-312
-5.74758e-311
-8.05482e-311
-2.89491e-311
7.64977e-311
1.18027e-310
9.46456e-311
1.62562e-311
-2.83155e-311
-2.63191e-311
-1.15492e-311
1.29588e-311
1.57619e-311
-3.25147e-312
-1.31229e-311
-5.75716e-312
3.37929e-311
2.70428e-311
-2.21788e-311
-4.30376e-311
-1.98081e-311