/*--------------------------------*- C++ -*----------------------------------*\
  =========                 |
  \\      /  F ield         | OpenFOAM: The Open Source CFD Toolbox
   \\    /   O peration     | Website:  https://openfoam.org
    \\  /    A nd           | Version:  11
     \\/     M anipulation  |
\*---------------------------------------------------------------------------*/
FoamFile
{
    format      ascii;
    class       volScalarField;
    location    "100";
    object      C;
}
// * * * * * * * * * * * * * * * * * * * * * * * * * * * * * * * * * * * * * //

dimensions      [0 0 0 1 0 0 0];

internalField   nonuniform List<scalar> 
440320
(
1.86026e-276
1.76996e-276
1.46159e-276
1.33838e-276
1.13612e-276
8.79316e-277
6.31452e-277
4.28577e-277
2.79044e-277
1.7635e-277
1.09221e-277
6.68335e-278
4.06908e-278
2.47955e-278
1.51904e-278
9.38136e-279
5.84526e-279
3.67048e-279
2.31715e-279
1.46572e-279
9.25643e-280
5.81552e-280
3.6231e-280
2.23188e-280
1.35598e-280
8.10618e-281
4.75748e-281
2.73482e-281
1.5358e-281
8.39924e-282
4.45556e-282
2.27985e-282
1.1161e-282
5.15895e-283
2.19821e-283
8.19289e-284
2.26948e-284
3.72511e-286
-5.98991e-285
-6.31464e-285
-4.9149e-285
-3.18792e-285
-1.74087e-285
-8.51986e-286
-3.8975e-286
-1.71075e-286
-7.32456e-287
-3.09056e-287
-1.29294e-287
-5.37883e-288
-2.22585e-288
-9.13041e-289
-3.65857e-289
-1.34478e-289
-3.01938e-290
2.74629e-290
7.50581e-290
1.3274e-289
2.16683e-289
3.45785e-289
5.46782e-289
8.59933e-289
1.34669e-288
2.10074e-288
3.2637e-288
5.04703e-288
7.76101e-288
1.18504e-287
1.79327e-287
2.68285e-287
3.95598e-287
5.72733e-287
8.10192e-287
1.11295e-286
1.47275e-286
1.85757e-286
2.20141e-286
2.4013e-286
2.33326e-286
1.9171e-286
6.05253e-276
4.36471e-276
3.46353e-276
3.53776e-276
3.21694e-276
2.56613e-276
1.83849e-276
1.19958e-276
7.13753e-277
3.81562e-277
1.74535e-277
5.7199e-278
-1.93885e-279
-2.66077e-278
-3.27959e-278
-3.0322e-278
-2.46891e-278
-1.8664e-278
-1.34266e-278
-9.31959e-279
-6.29615e-279
-4.16435e-279
-2.70776e-279
-1.73596e-279
-1.09958e-279
-6.89085e-280
-4.27584e-280
-2.62801e-280
-1.59978e-280
-9.64188e-281
-5.7499e-281
-3.3899e-281
-1.97381e-281
-1.13377e-281
-6.41687e-282
-3.5738e-282
-1.95597e-282
-1.0506e-282
-5.53153e-283
-2.85342e-283
-1.44294e-283
-7.13327e-284
-3.39122e-284
-1.55414e-284
-6.91262e-285
-3.00345e-285
-1.28119e-285
-5.38504e-286
-2.23553e-286
-9.17947e-287
-3.73096e-287
-1.50116e-287
-5.97282e-288
-2.33861e-288
-8.82032e-289
-2.87823e-289
-2.06761e-290
1.42926e-289
3.08907e-289
5.49589e-289
9.46645e-289
1.6235e-288
2.78263e-288
4.75776e-288
8.08971e-288
1.36324e-287
2.26921e-287
3.71901e-287
5.9818e-287
9.41092e-287
1.44289e-286
2.14685e-286
3.0841e-286
4.25058e-286
5.57332e-286
6.86973e-286
7.81003e-286
7.90553e-286
6.60648e-286
4.1222e-286
1.36521e-275
7.47241e-276
6.59814e-276
8.43147e-276
8.28176e-276
6.72771e-276
4.76988e-276
2.99828e-276
1.64017e-276
7.15491e-277
1.51965e-277
-1.48224e-277
-2.75685e-277
-3.01312e-277
-2.74572e-277
-2.26723e-277
-1.75507e-277
-1.29634e-277
-9.23335e-278
-6.38623e-278
-4.31017e-278
-2.84882e-278
-1.84892e-278
-1.18067e-278
-7.42938e-279
-4.61163e-279
-2.8258e-279
-1.70996e-279
-1.02197e-279
-6.03176e-280
-3.5144e-280
-2.02034e-280
-1.14515e-280
-6.39444e-281
-3.51412e-281
-1.89862e-281
-1.00729e-281
-5.24107e-282
-2.67136e-282
-1.33292e-282
-6.50962e-283
-3.11822e-283
-1.44659e-283
-6.50379e-284
-2.84641e-284
-1.21841e-284
-5.12127e-285
-2.1201e-285
-8.66285e-286
-3.49888e-286
-1.39836e-286
-5.53715e-287
-2.18052e-287
-8.66739e-288
-3.6818e-288
-1.97368e-288
-1.65376e-288
-2.0324e-288
-2.90405e-288
-4.25847e-288
-6.15307e-288
-8.63239e-288
-1.16397e-287
-1.48857e-287
-1.76452e-287
-1.84591e-287
-1.47257e-287
-2.19639e-288
2.55593e-287
7.7561e-287
1.65383e-286
3.02131e-286
4.99546e-286
7.61893e-286
1.07486e-285
1.3877e-285
1.58972e-285
1.49743e-285
9.31507e-286
4.35228e-287
3.53233e-275
1.58072e-275
1.59906e-275
2.32559e-275
2.34043e-275
1.88964e-275
1.31546e-275
8.03225e-276
4.16954e-276
1.57944e-276
2.6102e-278
-7.80395e-277
-1.09894e-276
-1.12934e-276
-1.01127e-276
-8.34145e-277
-6.49909e-277
-4.849e-277
-3.49381e-277
-2.44482e-277
-1.66815e-277
-1.11316e-277
-7.28113e-278
-4.67642e-278
-2.95313e-278
-1.83543e-278
-1.12354e-278
-6.77686e-279
-4.02857e-279
-2.3602e-279
-1.3625e-279
-7.74704e-280
-4.33612e-280
-2.38735e-280
-1.29182e-280
-6.86305e-281
-3.5758e-281
-1.82488e-281
-9.11128e-282
-4.44747e-282
-2.12068e-282
-9.93024e-283
-4.51604e-283
-1.99455e-283
-8.58425e-284
-3.61448e-284
-1.49417e-284
-6.08113e-285
-2.44186e-285
-9.68928e-286
-3.80463e-286
-1.48216e-286
-5.77935e-287
-2.33714e-287
-1.10779e-287
-7.82009e-288
-8.77749e-288
-1.24577e-287
-1.87749e-287
-2.83131e-287
-4.20249e-287
-6.10494e-287
-8.64851e-287
-1.19006e-286
-1.58217e-286
-2.01655e-286
-2.43353e-286
-2.72003e-286
-2.68887e-286
-2.0615e-286
-4.64967e-287
2.53575e-286
7.33465e-286
1.40545e-285
2.21129e-285
2.95253e-285
3.21103e-285
2.36656e-285
2.75451e-287
-2.79835e-285
1.26066e-274
6.48893e-275
6.08495e-275
7.61876e-275
7.22254e-275
5.62901e-275
3.81664e-275
2.28032e-275
1.16033e-275
4.2767e-276
-3.94402e-278
-2.25387e-276
-3.12273e-276
-3.20523e-276
-2.88235e-276
-2.39512e-276
-1.88369e-276
-1.42038e-276
-1.03493e-276
-7.3241e-277
-5.05218e-277
-3.40576e-277
-2.24803e-277
-1.45509e-277
-9.24635e-278
-5.77316e-278
-3.54398e-278
-2.13982e-278
-1.27104e-278
-7.42758e-279
-4.26944e-279
-2.41316e-279
-1.34052e-279
-7.31386e-280
-3.91606e-280
-2.05573e-280
-1.05685e-280
-5.31444e-281
-2.61072e-281
-1.25207e-281
-5.85398e-282
-2.68881e-282
-1.20134e-282
-5.21862e-283
-2.21013e-283
-9.15686e-284
-3.72352e-284
-1.49011e-284
-5.88141e-285
-2.29353e-285
-8.85291e-286
-3.39599e-286
-1.31381e-286
-5.43216e-287
-2.86361e-287
-2.42895e-287
-3.07847e-287
-4.5472e-287
-6.91206e-287
-1.04274e-286
-1.54597e-286
-2.24443e-286
-3.18244e-286
-4.39417e-286
-5.88494e-286
-7.60185e-286
-9.39137e-286
-1.09435e-285
-1.17276e-285
-1.09347e-285
-7.46023e-286
1.43805e-289
1.26276e-285
3.06973e-285
5.21313e-285
7.02903e-285
7.21094e-285
4.08506e-285
-2.83967e-285
-9.77446e-285
5.0318e-274
3.14677e-274
2.65601e-274
2.69525e-274
2.31995e-274
1.71657e-274
1.12646e-274
6.59425e-275
3.33418e-275
1.26695e-275
7.58774e-277
-5.27839e-276
-7.66857e-276
-7.97424e-276
-7.21894e-276
-6.03159e-276
-4.7709e-276
-3.62044e-276
-2.65648e-276
-1.89405e-276
-1.31661e-276
-8.94379e-277
-5.9472e-277
-3.87588e-277
-2.47793e-277
-1.5551e-277
-9.58473e-278
-5.80325e-278
-3.4521e-278
-2.01743e-278
-1.15806e-278
-6.52721e-279
-3.61055e-279
-1.95877e-279
-1.04138e-279
-5.42056e-280
-2.75935e-280
-1.372e-280
-6.65481e-281
-3.14676e-281
-1.44777e-281
-6.54293e-282
-2.87925e-282
-1.23284e-282
-5.14779e-283
-2.10255e-283
-8.42553e-284
-3.32149e-284
-1.29099e-284
-4.95693e-285
-1.88452e-285
-7.13271e-286
-2.7433e-286
-1.16015e-286
-6.67984e-287
-6.36092e-287
-8.54475e-287
-1.28174e-286
-1.95174e-286
-2.93996e-286
-4.35049e-286
-6.30679e-286
-8.93713e-286
-1.2347e-285
-1.65712e-285
-2.1495e-285
-2.67386e-285
-3.14972e-285
-3.43467e-285
-3.30513e-285
-2.44698e-285
-4.77048e-286
2.9651e-285
7.99334e-285
1.40537e-284
1.93384e-284
2.04514e-284
1.35226e-284
-1.62321e-285
-1.48679e-284
1.87958e-273
1.32411e-273
1.06277e-273
9.37259e-274
7.41089e-274
5.20922e-274
3.30582e-274
1.89568e-274
9.54226e-275
3.76861e-275
5.24797e-276
-1.09374e-275
-1.73791e-275
-1.84128e-275
-1.67587e-275
-1.40268e-275
-1.11062e-275
-8.43917e-276
-6.20455e-276
-4.4359e-276
-3.09404e-276
-2.11002e-276
-1.40902e-276
-9.2227e-277
-5.92137e-277
-3.73089e-277
-2.30753e-277
-1.40112e-277
-8.35198e-278
-4.8867e-278
-2.80561e-278
-1.57994e-278
-8.72195e-279
-4.71679e-279
-2.49675e-279
-1.29235e-279
-6.53394e-280
-3.22258e-280
-1.54844e-280
-7.24392e-281
-3.29147e-281
-1.46846e-281
-6.38381e-282
-2.70201e-282
-1.11552e-282
-4.50444e-283
-1.78403e-283
-6.94862e-284
-2.66768e-284
-1.01165e-284
-3.79983e-285
-1.42308e-285
-5.44979e-286
-2.34707e-286
-1.43903e-286
-1.46919e-286
-2.0368e-286
-3.0845e-286
-4.71265e-286
-7.11512e-286
-1.05561e-285
-1.5353e-285
-2.18455e-285
-3.0332e-285
-4.0951e-285
-5.34814e-285
-6.703e-285
-7.95811e-285
-8.74117e-285
-8.44539e-285
-6.18527e-285
-8.30495e-286
8.77181e-285
2.32172e-284
4.14576e-284
5.93808e-284
6.92216e-284
6.25628e-284
3.96837e-284
2.20162e-284
6.33592e-273
4.78465e-273
3.76934e-273
3.07218e-273
2.2894e-273
1.54464e-273
9.521e-274
5.35629e-274
2.68252e-274
1.0935e-274
2.23055e-275
-2.0368e-275
-3.73535e-275
-4.05289e-275
-3.70396e-275
-3.0953e-275
-2.44301e-275
-1.85028e-275
-1.35668e-275
-9.68136e-276
-6.74612e-276
-4.59997e-276
-3.07353e-276
-2.01413e-276
-1.29521e-276
-8.17563e-277
-5.06616e-277
-3.0817e-277
-1.83982e-277
-1.07772e-277
-6.19149e-278
-3.4867e-278
-1.92344e-278
-1.03862e-278
-5.48471e-279
-2.8296e-279
-1.42451e-279
-6.98874e-280
-3.33674e-280
-1.54944e-280
-6.97792e-281
-3.0838e-281
-1.32871e-281
-5.57704e-282
-2.28393e-282
-9.1482e-283
-3.5935e-283
-1.38785e-283
-5.28246e-284
-1.98604e-284
-7.39791e-285
-2.75075e-285
-1.0502e-285
-4.5735e-286
-2.91057e-286
-3.0909e-286
-4.36994e-286
-6.68061e-286
-1.02788e-285
-1.56274e-285
-2.33602e-285
-3.42555e-285
-4.91763e-285
-6.89288e-285
-9.39818e-285
-1.23964e-284
-1.56836e-284
-1.87639e-284
-2.06771e-284
-1.97934e-284
-1.3636e-284
1.11945e-285
2.81759e-284
7.02437e-284
1.26406e-283
1.88697e-283
2.40633e-283
2.63496e-283
2.55113e-283
2.52257e-283
1.94761e-272
1.53589e-272
1.20456e-272
9.41129e-273
6.75789e-273
4.43038e-273
2.67065e-273
1.47906e-273
7.37161e-274
3.07832e-274
7.79389e-275
-3.28797e-275
-7.69153e-275
-8.61289e-275
-7.90419e-275
-6.58077e-275
-5.1612e-275
-3.88202e-275
-2.82763e-275
-2.00599e-275
-1.39089e-275
-9.44646e-276
-6.29274e-276
-4.11489e-276
-2.64248e-276
-1.66675e-276
-1.03257e-276
-6.28159e-277
-3.75132e-277
-2.19822e-277
-1.26325e-277
-7.11464e-278
-3.92406e-278
-2.11766e-278
-1.11709e-278
-5.7538e-279
-2.89014e-279
-1.41377e-279
-6.72506e-280
-3.109e-280
-1.39241e-280
-6.11598e-281
-2.62023e-281
-1.09415e-281
-4.45943e-282
-1.77794e-282
-6.95165e-283
-2.67227e-283
-1.01236e-283
-3.7888e-284
-1.4053e-284
-5.20663e-285
-1.9843e-285
-8.67529e-286
-5.60558e-286
-6.06685e-286
-8.69668e-286
-1.34423e-285
-2.09036e-285
-3.21336e-285
-4.85939e-285
-7.2126e-285
-1.04843e-284
-1.48829e-284
-2.05485e-284
-2.74284e-284
-3.50628e-284
-4.2243e-284
-4.65177e-284
-4.35636e-284
-2.6552e-284
1.41151e-284
8.99661e-284
2.1138e-283
3.81298e-283
5.86647e-283
7.93313e-283
9.56836e-283
1.05789e-282
1.14288e-282
5.55432e-272
4.50878e-272
3.54181e-272
2.7068e-272
1.90189e-272
1.22416e-272
7.26672e-273
3.97855e-273
1.97598e-273
8.40821e-274
2.44234e-274
-3.93009e-275
-1.51896e-274
-1.77742e-274
-1.64092e-274
-1.35994e-274
-1.05775e-274
-7.88026e-275
-5.6849e-275
-3.99635e-275
-2.74802e-275
-1.85271e-275
-1.22642e-275
-7.97743e-276
-5.10088e-276
-3.20643e-276
-1.98123e-276
-1.20296e-276
-7.17424e-277
-4.20017e-277
-2.4123e-277
-1.3581e-277
-7.48852e-278
-4.04017e-278
-2.13046e-278
-1.09675e-278
-5.50472e-279
-2.68981e-279
-1.27762e-279
-5.89536e-280
-2.63366e-280
-1.15325e-280
-4.92759e-281
-2.05331e-281
-8.35473e-282
-3.32639e-282
-1.29904e-282
-4.98827e-283
-1.88803e-283
-7.06126e-284
-2.61825e-284
-9.70083e-285
-3.69658e-285
-1.61347e-285
-1.04048e-285
-1.1311e-285
-1.63846e-285
-2.56493e-285
-4.04324e-285
-6.30408e-285
-9.6734e-285
-1.45727e-284
-2.15014e-284
-3.09747e-284
-4.33734e-284
-5.86423e-284
-7.57433e-284
-9.17497e-284
-1.00476e-283
-9.06353e-284
-4.37982e-284
6.69548e-284
2.75802e-283
6.17405e-283
1.11171e-282
1.74157e-282
2.4354e-282
3.08132e-282
3.59244e-282
3.98428e-282
1.49202e-271
1.23613e-271
9.75002e-272
7.36975e-272
5.11689e-272
3.2582e-272
1.91552e-272
1.04094e-272
5.16089e-273
2.23008e-273
7.11546e-274
-2.42868e-276
-2.86416e-274
-3.57059e-274
-3.3281e-274
-2.74662e-274
-2.11655e-274
-1.55921e-274
-1.11163e-274
-7.72434e-275
-5.25336e-275
-3.50602e-275
-2.29968e-275
-1.48379e-275
-9.42115e-276
-5.88691e-276
-3.61943e-276
-2.18878e-276
-1.30118e-276
-7.59917e-277
-4.35663e-277
-2.44972e-277
-1.34971e-277
-7.27882e-278
-3.83776e-278
-1.97579e-278
-9.91869e-279
-4.84791e-279
-2.30326e-279
-1.06305e-279
-4.74911e-280
-2.07872e-280
-8.8819e-281
-3.70322e-281
-1.50849e-281
-6.01521e-282
-2.35348e-282
-9.05686e-283
-3.43647e-283
-1.28891e-283
-4.79471e-284
-1.7825e-284
-6.80521e-285
-2.95619e-285
-1.87966e-285
-2.03041e-285
-2.96485e-285
-4.70696e-285
-7.53814e-285
-1.1948e-284
-1.8642e-284
-2.85559e-284
-4.28321e-284
-6.2692e-284
-8.9099e-284
-1.22038e-283
-1.59153e-283
-1.93408e-283
-2.09408e-283
-1.78246e-283
-5.14317e-284
2.43962e-283
8.04145e-283
1.7335e-282
3.10719e-282
4.91208e-282
6.99246e-282
9.05988e-282
1.08136e-281
1.20983e-281
3.82073e-271
3.21321e-271
2.54684e-271
1.91562e-271
1.32218e-271
8.3715e-272
4.89517e-272
2.64885e-272
1.31312e-272
5.74833e-273
1.96194e-273
1.94863e-274
-5.10737e-274
-6.99008e-274
-6.61322e-274
-5.4419e-274
-4.1542e-274
-3.02328e-274
-2.12709e-274
-1.45831e-274
-9.78898e-275
-6.45232e-275
-4.18362e-275
-2.67104e-275
-1.67998e-275
-1.04104e-275
-6.35458e-276
-3.81933e-276
-2.25901e-276
-1.31391e-276
-7.5088e-277
-4.21229e-277
-2.31716e-277
-1.2485e-277
-6.58086e-278
-3.38888e-278
-1.70251e-278
-8.33097e-279
-3.96409e-279
-1.83297e-279
-8.20578e-280
-3.59822e-280
-1.54089e-280
-6.44312e-281
-2.63374e-281
-1.05446e-281
-4.14416e-282
-1.60264e-282
-6.11358e-283
-2.30642e-283
-8.63401e-284
-3.23022e-284
-1.23835e-284
-5.35004e-285
-3.32992e-285
-3.5459e-285
-5.20871e-285
-8.39369e-285
-1.3678e-284
-2.20729e-284
-3.50667e-284
-5.46819e-284
-8.34533e-284
-1.24175e-283
-1.79151e-283
-2.48507e-283
-3.2687e-283
-3.9746e-283
-4.22557e-283
-3.29701e-283
5.25562e-285
7.73067e-283
2.2317e-282
4.67179e-282
8.32372e-282
1.32042e-281
1.8961e-281
2.4854e-281
2.99824e-281
3.36246e-281
9.41455e-271
8.00767e-271
6.37827e-271
4.7898e-271
3.29817e-271
2.08328e-271
1.21515e-271
6.56289e-272
3.25702e-272
1.44181e-272
5.1729e-273
8.78318e-274
-8.45827e-274
-1.33433e-273
-1.29046e-273
-1.06098e-273
-8.02692e-274
-5.76898e-274
-4.00196e-274
-2.70368e-274
-1.78846e-274
-1.1622e-274
-7.43448e-275
-4.68708e-275
-2.91406e-275
-1.78698e-275
-1.0807e-275
-6.44289e-276
-3.78443e-276
-2.18847e-276
-1.24486e-276
-6.95843e-277
-3.81795e-277
-2.05381e-277
-1.08178e-277
-5.57141e-278
-2.80154e-278
-1.37317e-278
-6.54931e-279
-3.03751e-279
-1.36479e-279
-6.00586e-280
-2.58241e-280
-1.08494e-280
-4.45901e-281
-1.79605e-281
-7.1056e-282
-2.76762e-282
-1.06391e-282
-4.04693e-283
-1.52827e-283
-5.76811e-284
-2.22553e-284
-9.57358e-285
-5.81635e-285
-6.07366e-285
-8.95938e-285
-1.46625e-284
-2.4337e-284
-4.00263e-284
-6.48003e-284
-1.0293e-283
-1.599e-283
-2.41909e-283
-3.54234e-283
-4.97329e-283
-6.58887e-283
-7.9934e-283
-8.27822e-283
-5.66622e-283
2.93661e-283
2.23561e-282
5.92201e-282
1.21147e-281
2.14448e-281
3.40242e-281
4.90351e-281
6.46153e-281
7.83046e-281
8.78034e-281
2.24857e-270
1.92933e-270
1.54381e-270
1.15956e-270
7.98206e-271
5.0398e-271
2.93784e-271
1.58617e-271
7.88662e-272
3.52497e-272
1.31342e-272
2.88789e-273
-1.25112e-273
-2.48459e-273
-2.47843e-273
-2.04122e-273
-1.53183e-273
-1.0873e-273
-7.43364e-274
-4.94477e-274
-3.2197e-274
-2.0599e-274
-1.29797e-274
-8.06662e-275
-4.94843e-275
-2.99729e-275
-1.79248e-275
-1.05804e-275
-6.16087e-276
-3.53633e-276
-1.99918e-276
-1.11199e-276
-6.07865e-277
-3.26166e-277
-1.71559e-277
-8.83316e-278
-4.44517e-278
-2.18276e-278
-1.04399e-278
-4.86017e-279
-2.19412e-279
-9.70229e-280
-4.19457e-280
-1.77319e-280
-7.3383e-281
-2.97845e-281
-1.18813e-281
-4.66907e-282
-1.81196e-282
-6.96234e-283
-2.65735e-283
-1.01375e-283
-3.94474e-284
-1.6936e-284
-1.00518e-284
-1.02684e-284
-1.51925e-284
-2.5257e-284
-4.27258e-284
-7.16549e-284
-1.18265e-283
-1.91401e-283
-3.02678e-283
-4.65514e-283
-6.91582e-283
-9.81947e-283
-1.30845e-282
-1.5789e-282
-1.57818e-282
-8.79624e-283
1.26855e-282
6.05103e-282
1.51096e-281
3.03498e-281
5.33805e-281
8.4559e-281
1.21964e-280
1.61027e-280
1.95444e-280
2.18895e-280
5.23573e-270
4.52325e-270
3.63434e-270
2.7328e-270
1.88269e-270
1.18958e-270
6.93792e-271
3.74825e-271
1.86793e-271
8.41796e-272
3.2291e-272
8.27966e-273
-1.48094e-273
-4.51397e-273
-4.69611e-273
-3.88598e-273
-2.89597e-273
-2.03087e-273
-1.36823e-273
-8.957e-274
-5.73646e-274
-3.60958e-274
-2.23762e-274
-1.3689e-274
-8.27284e-275
-4.94128e-275
-2.91721e-275
-1.70194e-275
-9.80771e-276
-5.5788e-276
-3.12964e-276
-1.72981e-276
-9.40928e-277
-5.03071e-277
-2.64017e-277
-1.35812e-277
-6.83719e-278
-3.36295e-278
-1.61317e-278
-7.54096e-279
-3.42283e-279
-1.52224e-279
-6.62337e-280
-2.82021e-280
-1.17654e-280
-4.81746e-281
-1.94007e-281
-7.70191e-282
-3.02142e-282
-1.17431e-282
-4.53612e-283
-1.75159e-283
-6.88609e-284
-2.9593e-284
-1.72202e-284
-1.72186e-284
-2.55424e-284
-4.3143e-284
-7.44029e-284
-1.27266e-283
-2.14155e-283
-3.53115e-283
-5.6832e-283
-8.88242e-283
-1.33802e-282
-1.9196e-282
-2.56888e-282
-3.07373e-282
-2.93338e-282
-1.14376e-282
4.0802e-282
1.55708e-281
3.72721e-281
7.3779e-281
1.28993e-280
2.0384e-280
2.93812e-280
3.87982e-280
4.70925e-280
5.26622e-280
1.19404e-269
1.03717e-269
8.36354e-270
6.29843e-270
4.34507e-270
2.74908e-270
1.60512e-270
8.68192e-271
4.33702e-271
1.96826e-271
7.72271e-272
2.19003e-272
-7.25078e-274
-7.9999e-273
-8.80075e-273
-7.34085e-273
-5.43978e-273
-3.77104e-273
-2.50393e-273
-1.61285e-273
-1.0155e-273
-6.28007e-274
-3.82646e-274
-2.30173e-274
-1.3686e-274
-8.04944e-275
-4.68421e-275
-2.69684e-275
-1.53556e-275
-8.64205e-276
-4.80358e-276
-2.63449e-276
-1.42407e-276
-7.57767e-277
-3.96395e-277
-2.03552e-277
-1.02449e-277
-5.04537e-278
-2.42681e-278
-1.13916e-278
-5.20013e-279
-2.32703e-279
-1.01961e-279
-4.37584e-280
-1.84157e-280
-7.61295e-281
-3.09766e-281
-1.24338e-281
-4.93513e-282
-1.94191e-282
-7.59854e-283
-2.97278e-283
-1.18238e-283
-5.10177e-284
-2.92663e-284
-2.87427e-284
-4.27832e-284
-7.34357e-284
-1.29113e-283
-2.25224e-283
-3.86327e-283
-6.48796e-283
-1.06229e-282
-1.68629e-282
-2.57383e-282
-3.72755e-282
-5.00251e-282
-5.91698e-282
-5.32325e-282
-9.01148e-283
1.15021e-281
3.85046e-281
8.93432e-281
1.7478e-280
3.0394e-280
4.78998e-280
6.89456e-280
9.09778e-280
1.1035e-279
1.23205e-279
2.67703e-269
2.33543e-269
1.88913e-269
1.42501e-269
9.84625e-270
6.23943e-270
3.64818e-270
1.97604e-270
9.89426e-271
4.51684e-271
1.80386e-271
5.48564e-272
3.24493e-273
-1.38172e-272
-1.63545e-272
-1.37978e-272
-1.01808e-272
-6.9817e-273
-4.57031e-273
-2.89674e-273
-1.79271e-273
-1.0891e-273
-6.518e-274
-3.85177e-274
-2.25096e-274
-1.30207e-274
-7.45875e-275
-4.23157e-275
-2.37713e-275
-1.32165e-275
-7.26777e-276
-3.94933e-276
-2.11851e-276
-1.12049e-276
-5.83556e-277
-2.98837e-277
-1.50242e-277
-7.40333e-278
-3.56896e-278
-1.68177e-278
-7.72029e-279
-3.47664e-279
-1.5344e-279
-6.63933e-280
-2.81978e-280
-1.17739e-280
-4.84277e-281
-1.96641e-281
-7.90087e-282
-3.14913e-282
-1.24887e-282
-4.95323e-283
-1.99518e-283
-8.66857e-284
-4.93472e-284
-4.78924e-284
-7.16843e-284
-1.25085e-283
-2.24174e-283
-3.98665e-283
-6.96749e-283
-1.19114e-282
-1.98288e-282
-3.19476e-282
-4.93699e-282
-7.21091e-282
-9.69163e-282
-1.12983e-281
-9.43853e-282
1.16364e-282
2.99975e-281
9.22298e-281
2.0904e-280
4.05059e-280
7.01071e-280
1.10187e-279
1.58333e-279
2.08693e-279
2.5287e-279
2.81904e-279
5.91839e-269
5.1812e-269
4.20223e-269
3.17494e-269
2.1973e-269
1.39465e-269
8.16656e-270
4.42987e-270
2.22287e-270
1.01976e-270
4.12963e-271
1.32063e-271
1.60238e-272
-2.32046e-272
-3.0214e-272
-2.58717e-272
-1.90344e-272
-1.29229e-272
-8.3442e-273
-5.2053e-273
-3.16643e-273
-1.8894e-273
-1.11021e-273
-6.44135e-274
-3.69672e-274
-2.10104e-274
-1.18339e-274
-6.60726e-275
-3.65687e-275
-2.00566e-275
-1.08951e-275
-5.8573e-276
-3.11347e-276
-1.63452e-276
-8.46414e-277
-4.31738e-277
-2.16594e-277
-1.06693e-277
-5.15113e-278
-2.43528e-278
-1.12376e-278
-5.09155e-279
-2.26324e-279
-9.87369e-280
-4.2322e-280
-1.78513e-280
-7.42339e-281
-3.04983e-281
-1.24072e-281
-5.01031e-282
-2.01421e-282
-8.10079e-283
-3.30695e-283
-1.45057e-283
-8.25395e-284
-7.98207e-284
-1.2056e-283
-2.1398e-283
-3.90784e-283
-7.08097e-283
-1.26011e-282
-2.19142e-282
-3.70619e-282
-6.05588e-282
-9.46691e-282
-1.3932e-281
-1.87298e-281
-2.14626e-281
-1.63485e-281
8.43957e-282
7.4255e-281
2.15287e-280
4.79261e-280
9.21519e-280
1.58845e-279
2.49026e-279
3.57215e-279
4.70227e-279
5.69125e-279
6.33606e-279
1.29346e-268
1.13554e-268
9.23057e-269
6.9845e-269
4.84121e-269
3.07753e-269
1.80466e-269
9.80283e-270
4.92838e-270
2.27015e-270
9.29466e-271
3.08485e-271
5.09264e-272
-3.77219e-272
-5.56336e-272
-4.85123e-272
-3.56352e-272
-2.39727e-272
-1.52775e-272
-9.38424e-273
-5.61253e-273
-3.2895e-273
-1.89753e-273
-1.08053e-273
-6.08651e-274
-3.39632e-274
-1.87912e-274
-1.03141e-274
-5.61714e-275
-3.03499e-275
-1.62627e-275
-8.63685e-276
-4.54245e-276
-2.36352e-276
-1.21521e-276
-6.16579e-277
-3.08274e-277
-1.51633e-277
-7.32442e-278
-3.4711e-278
-1.60894e-278
-7.3306e-279
-3.28063e-279
-1.44258e-279
-6.23921e-280
-2.65804e-280
-1.11739e-280
-4.64449e-281
-1.91296e-281
-7.82606e-282
-3.18912e-282
-1.30061e-282
-5.38322e-283
-2.38972e-283
-1.36954e-283
-1.33299e-283
-2.04104e-283
-3.68753e-283
-6.85939e-283
-1.26547e-282
-2.29116e-282
-4.04972e-282
-6.95208e-282
-1.15102e-281
-1.81862e-281
-2.69427e-281
-3.61926e-281
-4.06706e-281
-2.76259e-281
2.91328e-281
1.77028e-280
4.92073e-280
1.08027e-279
2.06416e-279
3.54571e-279
5.54603e-279
7.94231e-279
1.04416e-278
1.26236e-278
1.4037e-278
2.80026e-268
2.46395e-268
2.00669e-268
1.52045e-268
1.05535e-268
6.71825e-269
3.94476e-269
2.14549e-269
1.08043e-269
4.99334e-270
2.06224e-270
7.03838e-271
1.3854e-271
-5.8851e-272
-1.02346e-271
-9.11659e-272
-6.69422e-272
-4.46614e-272
-2.81123e-272
-1.70137e-272
-1.00092e-272
-5.76395e-273
-3.26445e-273
-1.82431e-273
-1.00834e-273
-5.52154e-274
-2.99889e-274
-1.61671e-274
-8.65463e-275
-4.60097e-275
-2.42861e-275
-1.27229e-275
-6.61073e-276
-3.40385e-276
-1.73497e-276
-8.74332e-277
-4.35038e-277
-2.13384e-277
-1.02995e-277
-4.88731e-278
-2.27329e-278
-1.0407e-278
-4.6858e-279
-2.07565e-279
-9.05382e-280
-3.89412e-280
-1.65428e-280
-6.95434e-281
-2.89909e-281
-1.20121e-281
-4.96031e-282
-2.05092e-282
-8.60886e-283
-3.87647e-283
-2.25532e-283
-2.23422e-283
-3.48679e-283
-6.41752e-283
-1.21521e-282
-2.28052e-282
-4.19656e-282
-7.53154e-282
-1.31109e-281
-2.19742e-281
-3.50597e-281
-5.22447e-281
-7.00672e-281
-7.70662e-281
-4.53962e-281
8.23402e-281
4.10299e-280
1.10554e-279
2.40075e-279
4.56405e-279
7.81692e-279
1.22024e-278
1.74482e-278
2.29111e-278
2.76702e-278
3.07362e-278
6.01551e-268
5.30279e-268
4.32553e-268
3.2813e-268
2.28036e-268
1.45348e-268
8.54435e-269
4.65231e-269
2.3461e-269
1.08721e-269
4.52109e-270
1.57626e-270
3.47414e-271
-8.6636e-272
-1.88532e-271
-1.72018e-271
-1.26397e-271
-8.3703e-272
-5.20826e-272
-3.10801e-272
-1.79975e-272
-1.01889e-272
-5.66784e-273
-3.10916e-273
-1.68629e-273
-9.05975e-274
-4.8283e-274
-2.555e-274
-1.34331e-274
-7.01918e-275
-3.64533e-275
-1.8812e-275
-9.64233e-276
-4.90539e-276
-2.47469e-276
-1.23665e-276
-6.11366e-277
-2.98566e-277
-1.43791e-277
-6.82248e-278
-3.18041e-278
-1.46132e-278
-6.61346e-279
-2.94863e-279
-1.29618e-279
-5.62467e-280
-2.41316e-280
-1.02544e-280
-4.32439e-281
-1.81377e-281
-7.58637e-282
-3.17889e-282
-1.3534e-282
-6.19584e-283
-3.69037e-283
-3.76549e-283
-6.02293e-283
-1.13008e-282
-2.17672e-282
-4.15089e-282
-7.75494e-282
-1.41161e-281
-2.48923e-281
-4.21914e-281
-6.79147e-281
-1.01718e-280
-1.36111e-280
-1.46339e-280
-7.20904e-281
2.11308e-280
9.30489e-280
2.44909e-279
5.273e-279
9.98325e-279
1.70566e-278
2.65796e-278
3.79551e-278
4.97843e-278
6.00691e-278
6.66656e-278
1.28406e-267
1.13361e-267
9.25913e-268
7.03107e-268
4.89153e-268
3.12119e-268
1.83667e-268
1.001e-268
5.0538e-269
2.34709e-269
9.81338e-270
3.47801e-270
8.28473e-271
-1.16003e-271
-3.48472e-271
-3.2638e-271
-2.40186e-271
-1.58014e-271
-9.72802e-272
-5.72911e-272
-3.26827e-272
-1.82035e-272
-9.95243e-273
-5.3618e-273
-2.85447e-273
-1.50485e-273
-7.86889e-274
-4.08598e-274
-2.10867e-274
-1.08215e-274
-5.52395e-275
-2.80475e-275
-1.41618e-275
-7.10748e-276
-3.54305e-276
-1.75268e-276
-8.59422e-277
-4.17156e-277
-2.00121e-277
-9.47889e-278
-4.42164e-278
-2.03628e-278
-9.2514e-279
-4.14701e-279
-1.83531e-279
-8.02786e-280
-3.4755e-280
-1.49169e-280
-6.359e-281
-2.69806e-281
-1.1423e-281
-4.84834e-282
-2.09372e-282
-9.76967e-283
-6.01183e-283
-6.39493e-283
-1.05371e-282
-2.01628e-282
-3.94701e-282
-7.63937e-282
-1.44728e-281
-2.66887e-281
-4.76211e-281
-8.1544e-281
-1.32311e-280
-1.99041e-280
-2.65631e-280
-2.78971e-280
-1.09334e-280
5.12059e-280
2.07452e-279
5.36328e-279
1.14695e-278
2.16428e-278
3.69021e-278
5.74207e-278
8.18994e-278
1.07321e-277
1.29385e-277
1.43484e-277
2.72675e-267
2.41014e-267
1.97071e-267
1.4978e-267
1.04298e-267
6.66122e-268
3.92316e-268
2.13988e-268
1.0814e-268
5.03102e-269
2.11257e-269
7.58328e-270
1.90968e-270
-1.27627e-271
-6.47405e-271
-6.23391e-271
-4.59751e-271
-3.00719e-271
-1.83347e-271
-1.06671e-271
-6.00087e-272
-3.29148e-272
-1.77025e-272
-9.3735e-273
-4.90131e-273
-2.53667e-273
-1.30177e-273
-6.63312e-274
-3.35946e-274
-1.69246e-274
-8.48551e-275
-4.23497e-275
-2.10395e-275
-1.04023e-275
-5.1159e-276
-2.50095e-276
-1.21415e-276
-5.8467e-277
-2.78865e-277
-1.31616e-277
-6.13253e-278
-2.826e-278
-1.28698e-278
-5.79208e-279
-2.57743e-279
-1.13509e-279
-4.95345e-280
-2.14523e-280
-9.23584e-281
-3.9606e-281
-1.69595e-281
-7.28654e-282
-3.19189e-282
-1.52263e-282
-9.7782e-283
-1.09697e-282
-1.86955e-282
-3.64822e-282
-7.25029e-282
-1.4225e-281
-2.72936e-281
-5.09276e-281
-9.18452e-281
-1.58725e-280
-2.59385e-280
-3.91687e-280
-5.21223e-280
-5.3466e-280
-1.54627e-280
1.19476e-279
4.56311e-279
1.1635e-278
2.47487e-278
4.65752e-278
7.92802e-278
1.23209e-277
1.75557e-277
2.29855e-277
2.76912e-277
3.06891e-277
5.76587e-267
5.10134e-267
4.17498e-267
3.17547e-267
2.21293e-267
1.41444e-267
8.3364e-268
4.55008e-268
2.3012e-268
1.07207e-268
4.51707e-269
1.63766e-269
4.29656e-270
-6.63565e-272
-1.21068e-270
-1.19947e-270
-8.86913e-271
-5.77216e-271
-3.48857e-271
-2.00721e-271
-1.11476e-271
-6.02815e-272
-3.19272e-272
-1.66325e-272
-8.54976e-273
-4.34731e-273
-2.19077e-273
-1.09586e-273
-5.44777e-274
-2.69404e-274
-1.32621e-274
-6.50195e-275
-3.17543e-275
-1.54485e-275
-7.48515e-276
-3.61026e-276
-1.73219e-276
-8.25939e-277
-3.90895e-277
-1.83464e-277
-8.52141e-278
-3.92189e-278
-1.78711e-278
-8.06176e-279
-3.60156e-279
-1.59467e-279
-7.00548e-280
-3.05758e-280
-1.32792e-280
-5.7493e-281
-2.48751e-281
-1.08102e-281
-4.80425e-282
-2.3517e-282
-1.59387e-282
-1.90534e-282
-3.36708e-282
-6.69665e-282
-1.34948e-281
-2.68043e-281
-5.20207e-281
-9.80982e-281
-1.78613e-280
-3.11217e-280
-5.11801e-280
-7.75375e-280
-1.02878e-279
-1.03132e-279
-1.9276e-280
2.7144e-279
9.92963e-279
2.50474e-278
5.3052e-278
9.96242e-278
1.69348e-277
2.6291e-277
3.74294e-277
4.89705e-277
5.89592e-277
6.53071e-277
1.21504e-266
1.07584e-266
8.81131e-267
6.70601e-267
4.67635e-267
2.99093e-267
1.76385e-267
9.63246e-268
4.87462e-268
2.27347e-268
9.60481e-269
3.50951e-269
9.49588e-270
2.07542e-271
-2.28144e-270
-2.32581e-270
-1.72462e-270
-1.11754e-270
-6.70165e-271
-3.81746e-271
-2.09556e-271
-1.11856e-271
-5.84127e-272
-2.99744e-272
-1.51644e-272
-7.58328e-273
-3.75611e-273
-1.84584e-273
-9.01189e-274
-4.37604e-274
-2.11529e-274
-1.01853e-274
-4.88748e-275
-2.33783e-275
-1.11472e-275
-5.29736e-276
-2.50782e-276
-1.18187e-276
-5.5391e-277
-2.57984e-277
-1.1919e-277
-5.46716e-278
-2.4877e-278
-1.12268e-278
-5.02625e-279
-2.2337e-279
-9.86272e-280
-4.33185e-280
-1.89524e-280
-8.27387e-281
-3.61286e-281
-1.58674e-281
-7.15655e-282
-3.61207e-282
-2.61544e-282
-3.35866e-282
-6.15838e-282
-1.24697e-281
-2.54462e-281
-5.11017e-281
-1.00189e-280
-1.90715e-280
-3.50192e-280
-6.14616e-280
-1.01636e-279
-1.5441e-279
-2.04296e-279
-2.0036e-279
-1.75125e-280
6.04786e-279
2.14225e-278
5.35846e-278
1.13113e-277
2.12043e-277
3.60041e-277
5.58479e-277
7.9451e-277
1.03885e-276
1.25009e-276
1.38405e-276
2.55333e-266
2.26223e-266
1.85393e-266
1.4117e-266
9.84964e-267
6.3031e-267
3.71897e-267
2.03184e-267
1.02875e-267
4.80211e-268
2.03309e-268
7.47457e-269
2.07061e-269
1.02698e-270
-4.33563e-270
-4.54497e-270
-3.37991e-270
-2.18201e-270
-1.29951e-270
-7.33666e-271
-3.98553e-271
-2.10264e-271
-1.08407e-271
-5.4868e-272
-2.73554e-272
-1.34706e-272
-6.56574e-273
-3.17323e-273
-1.52292e-273
-7.26675e-274
-3.4509e-274
-1.63236e-274
-7.69602e-275
-3.61814e-275
-1.69664e-275
-7.93595e-276
-3.70206e-276
-1.7216e-276
-7.97542e-277
-3.67855e-277
-1.68676e-277
-7.69383e-278
-3.48819e-278
-1.57149e-278
-7.0361e-279
-3.13233e-279
-1.38754e-279
-6.12218e-280
-2.69397e-280
-1.18408e-280
-5.21108e-281
-2.31074e-281
-1.05833e-281
-5.54176e-282
-4.34218e-282
-6.01969e-282
-1.14388e-281
-2.35443e-281
-4.85859e-281
-9.85218e-281
-1.94897e-280
-3.74068e-280
-6.91981e-280
-1.2222e-279
-2.0309e-279
-3.09291e-279
-4.08137e-279
-3.92189e-279
2.80813e-281
1.32792e-278
4.59005e-278
1.14054e-277
2.40116e-277
4.49499e-277
7.6254e-277
1.18198e-276
1.68051e-276
2.19618e-276
2.64154e-276
2.92353e-276
5.35362e-266
4.74564e-266
3.89104e-266
2.96418e-266
2.06909e-266
1.32466e-266
7.81893e-267
4.27336e-267
2.1645e-267
1.01106e-267
4.28778e-268
1.58408e-268
4.46885e-269
3.15574e-270
-8.31214e-270
-8.94896e-270
-6.6738e-270
-4.29475e-270
-2.54239e-270
-1.42413e-270
-7.66521e-271
-4.00203e-271
-2.03988e-271
-1.01976e-271
-5.01746e-272
-2.4364e-272
-1.17019e-272
-5.56936e-273
-2.63065e-273
-1.2348e-273
-5.76623e-274
-2.68141e-274
-1.24267e-274
-5.74302e-275
-2.64805e-275
-1.21853e-275
-5.59648e-276
-2.56504e-276
-1.17273e-276
-5.34676e-277
-2.42823e-277
-1.09898e-277
-4.95313e-278
-2.22255e-278
-9.92965e-279
-4.41855e-279
-1.95956e-279
-8.66849e-280
-3.82921e-280
-1.69154e-280
-7.49108e-281
-3.35023e-281
-1.55978e-281
-8.5396e-282
-7.33005e-282
-1.09823e-281
-2.15678e-281
-4.50428e-281
-9.38647e-281
-1.91955e-280
-3.82699e-280
-7.3981e-280
-1.37741e-279
-2.44627e-279
-4.08194e-279
-6.22933e-279
-8.20059e-279
-7.73483e-279
7.35156e-280
2.88323e-278
9.78066e-278
2.41767e-277
5.07909e-277
9.49754e-277
1.61e-276
2.49414e-276
3.54433e-276
4.62987e-276
5.56664e-276