/*--------------------------------*- C++ -*----------------------------------*\
  =========                 |
  \\      /  F ield         | OpenFOAM: The Open Source CFD Toolbox
   \\    /   O peration     | Website:  https://openfoam.org
    \\  /    A nd           | Version:  11
     \\/     M anipulation  |
\*---------------------------------------------------------------------------*/
FoamFile
{
    format      ascii;
    class       volScalarField;
    location    "1595";
    object      p;
}
// * * * * * * * * * * * * * * * * * * * * * * * * * * * * * * * * * * * * * //

dimensions      [0 2 -2 0 0 0 0];

internalField   nonuniform List<scalar> 
440320
(
0.306594
0.302467
0.299563
0.297886
0.296775
0.295955
0.295338
0.29487
0.29451
0.294228
0.294003
0.293821
0.293671
0.293546
0.29344
0.293349
0.293271
0.293202
0.293142
0.293089
0.293041
0.292999
0.292961
0.292927
0.292896
0.292868
0.292844
0.292821
0.292801
0.292783
0.292768
0.292754
0.292741
0.292731
0.292722
0.292715
0.292709
0.292705
0.292702
0.2927
0.2927
0.292702
0.292705
0.292709
0.292715
0.292722
0.292731
0.292741
0.292754
0.292768
0.292783
0.292801
0.292821
0.292844
0.292868
0.292896
0.292927
0.292961
0.292999
0.293041
0.293089
0.293142
0.293202
0.293271
0.293349
0.29344
0.293546
0.293671
0.293821
0.294003
0.294228
0.29451
0.29487
0.295338
0.295955
0.296775
0.297886
0.299563
0.302467
0.306594
0.297289
0.297054
0.296646
0.296183
0.295738
0.295335
0.294982
0.294679
0.294421
0.294201
0.294014
0.293854
0.293716
0.293598
0.293494
0.293404
0.293325
0.293255
0.293193
0.293138
0.293089
0.293045
0.293005
0.29297
0.292938
0.292909
0.292883
0.29286
0.292839
0.29282
0.292804
0.292789
0.292776
0.292765
0.292756
0.292749
0.292743
0.292738
0.292735
0.292734
0.292734
0.292735
0.292738
0.292743
0.292749
0.292756
0.292765
0.292776
0.292789
0.292804
0.29282
0.292839
0.29286
0.292883
0.292909
0.292938
0.29297
0.293005
0.293045
0.293089
0.293138
0.293193
0.293255
0.293325
0.293404
0.293494
0.293598
0.293716
0.293854
0.294014
0.294201
0.294421
0.294679
0.294982
0.295335
0.295738
0.296183
0.296646
0.297054
0.297289
0.294991
0.295191
0.295288
0.295207
0.295038
0.294841
0.294639
0.294446
0.294265
0.294101
0.293953
0.29382
0.293702
0.293597
0.293504
0.29342
0.293346
0.293279
0.293219
0.293165
0.293117
0.293074
0.293034
0.292999
0.292967
0.292938
0.292912
0.292888
0.292867
0.292848
0.292832
0.292817
0.292804
0.292793
0.292784
0.292776
0.29277
0.292765
0.292762
0.292761
0.292761
0.292762
0.292765
0.29277
0.292776
0.292784
0.292793
0.292804
0.292817
0.292832
0.292848
0.292867
0.292888
0.292912
0.292938
0.292967
0.292999
0.293034
0.293074
0.293117
0.293165
0.293219
0.293279
0.293346
0.29342
0.293504
0.293597
0.293702
0.29382
0.293953
0.294101
0.294265
0.294446
0.294639
0.294841
0.295038
0.295207
0.295288
0.295191
0.294991
0.294093
0.294286
0.294429
0.294462
0.294423
0.294347
0.29425
0.294142
0.294032
0.293923
0.293819
0.29372
0.293629
0.293544
0.293467
0.293396
0.293331
0.293271
0.293218
0.293168
0.293124
0.293083
0.293046
0.293012
0.292981
0.292954
0.292928
0.292906
0.292885
0.292867
0.292851
0.292836
0.292824
0.292813
0.292804
0.292796
0.29279
0.292786
0.292783
0.292781
0.292781
0.292783
0.292786
0.29279
0.292796
0.292804
0.292813
0.292824
0.292836
0.292851
0.292867
0.292885
0.292906
0.292928
0.292954
0.292981
0.293012
0.293046
0.293083
0.293124
0.293168
0.293218
0.293271
0.293331
0.293396
0.293467
0.293544
0.293629
0.29372
0.293819
0.293923
0.294032
0.294142
0.29425
0.294347
0.294423
0.294462
0.294429
0.294286
0.294093
0.293623
0.293772
0.293899
0.293963
0.293978
0.293961
0.293922
0.293869
0.293806
0.293738
0.293668
0.293599
0.293532
0.293467
0.293406
0.293348
0.293294
0.293244
0.293198
0.293155
0.293115
0.293078
0.293044
0.293013
0.292985
0.292959
0.292936
0.292914
0.292895
0.292878
0.292862
0.292848
0.292836
0.292826
0.292817
0.29281
0.292804
0.2928
0.292797
0.292795
0.292795
0.292797
0.2928
0.292804
0.29281
0.292817
0.292826
0.292836
0.292848
0.292862
0.292878
0.292895
0.292914
0.292936
0.292959
0.292985
0.293013
0.293044
0.293078
0.293115
0.293155
0.293198
0.293244
0.293294
0.293348
0.293406
0.293467
0.293532
0.293599
0.293668
0.293738
0.293806
0.293869
0.293922
0.293961
0.293978
0.293963
0.293899
0.293772
0.293623
0.29335
0.29346
0.293561
0.293625
0.293658
0.293667
0.293659
0.293636
0.293604
0.293564
0.29352
0.293474
0.293426
0.293379
0.293332
0.293287
0.293244
0.293203
0.293164
0.293128
0.293094
0.293062
0.293032
0.293005
0.292979
0.292956
0.292934
0.292915
0.292897
0.292881
0.292867
0.292854
0.292843
0.292833
0.292825
0.292818
0.292812
0.292808
0.292805
0.292804
0.292804
0.292805
0.292808
0.292812
0.292818
0.292825
0.292833
0.292843
0.292854
0.292867
0.292881
0.292897
0.292915
0.292934
0.292956
0.292979
0.293005
0.293032
0.293062
0.293094
0.293128
0.293164
0.293203
0.293244
0.293287
0.293332
0.293379
0.293426
0.293474
0.29352
0.293564
0.293604
0.293636
0.293659
0.293667
0.293658
0.293625
0.293561
0.29346
0.29335
0.293174
0.293255
0.293333
0.293389
0.293425
0.293445
0.293451
0.293446
0.293432
0.29341
0.293384
0.293354
0.293322
0.293288
0.293254
0.29322
0.293186
0.293154
0.293122
0.293092
0.293064
0.293037
0.293011
0.292987
0.292965
0.292945
0.292926
0.292908
0.292892
0.292878
0.292865
0.292853
0.292843
0.292834
0.292826
0.29282
0.292815
0.292811
0.292809
0.292807
0.292807
0.292809
0.292811
0.292815
0.29282
0.292826
0.292834
0.292843
0.292853
0.292865
0.292878
0.292892
0.292908
0.292926
0.292945
0.292965
0.292987
0.293011
0.293037
0.293064
0.293092
0.293122
0.293154
0.293186
0.29322
0.293254
0.293288
0.293322
0.293354
0.293384
0.29341
0.293432
0.293446
0.293451
0.293445
0.293425
0.293389
0.293333
0.293255
0.293174
0.29305
0.293111
0.293172
0.293219
0.293252
0.293275
0.293287
0.293291
0.293288
0.293278
0.293263
0.293245
0.293224
0.293201
0.293176
0.293151
0.293126
0.2931
0.293075
0.293051
0.293028
0.293006
0.292984
0.292964
0.292945
0.292927
0.292911
0.292895
0.292881
0.292869
0.292857
0.292847
0.292837
0.292829
0.292823
0.292817
0.292812
0.292809
0.292807
0.292805
0.292805
0.292807
0.292809
0.292812
0.292817
0.292823
0.292829
0.292837
0.292847
0.292857
0.292869
0.292881
0.292895
0.292911
0.292927
0.292945
0.292964
0.292984
0.293006
0.293028
0.293051
0.293075
0.2931
0.293126
0.293151
0.293176
0.293201
0.293224
0.293245
0.293263
0.293278
0.293288
0.293291
0.293287
0.293275
0.293252
0.293219
0.293172
0.293111
0.29305
0.292957
0.293004
0.293053
0.293091
0.293121
0.293142
0.293157
0.293165
0.293168
0.293165
0.293158
0.293147
0.293134
0.293119
0.293102
0.293083
0.293065
0.293045
0.293026
0.293007
0.292988
0.29297
0.292953
0.292936
0.29292
0.292905
0.292891
0.292878
0.292866
0.292855
0.292845
0.292835
0.292827
0.29282
0.292814
0.292809
0.292805
0.292802
0.2928
0.292799
0.292799
0.2928
0.292802
0.292805
0.292809
0.292814
0.29282
0.292827
0.292835
0.292845
0.292855
0.292866
0.292878
0.292891
0.292905
0.29292
0.292936
0.292953
0.29297
0.292988
0.293007
0.293026
0.293045
0.293065
0.293083
0.293102
0.293119
0.293134
0.293147
0.293158
0.293165
0.293168
0.293165
0.293157
0.293142
0.293121
0.293091
0.293053
0.293004
0.292957
0.292886
0.292922
0.292961
0.292992
0.293017
0.293037
0.293052
0.293062
0.293067
0.293069
0.293066
0.293061
0.293053
0.293043
0.293032
0.293019
0.293006
0.292991
0.292977
0.292962
0.292947
0.292933
0.292919
0.292905
0.292892
0.292879
0.292868
0.292856
0.292846
0.292837
0.292828
0.29282
0.292813
0.292807
0.292802
0.292797
0.292794
0.292791
0.292789
0.292788
0.292788
0.292789
0.292791
0.292794
0.292797
0.292802
0.292807
0.292813
0.29282
0.292828
0.292837
0.292846
0.292856
0.292868
0.292879
0.292892
0.292905
0.292919
0.292933
0.292947
0.292962
0.292977
0.292991
0.293006
0.293019
0.293032
0.293043
0.293053
0.293061
0.293066
0.293069
0.293067
0.293062
0.293052
0.293037
0.293017
0.292992
0.292961
0.292922
0.292886
0.292827
0.292856
0.292887
0.292913
0.292934
0.292952
0.292966
0.292976
0.292983
0.292986
0.292987
0.292985
0.292981
0.292975
0.292968
0.292959
0.292949
0.292939
0.292928
0.292917
0.292905
0.292894
0.292883
0.292872
0.292861
0.292851
0.292841
0.292832
0.292823
0.292815
0.292808
0.292801
0.292795
0.29279
0.292786
0.292782
0.292779
0.292777
0.292775
0.292774
0.292774
0.292775
0.292777
0.292779
0.292782
0.292786
0.29279
0.292795
0.292801
0.292808
0.292815
0.292823
0.292832
0.292841
0.292851
0.292861
0.292872
0.292883
0.292894
0.292905
0.292917
0.292928
0.292939
0.292949
0.292959
0.292968
0.292975
0.292981
0.292985
0.292987
0.292986
0.292983
0.292976
0.292966
0.292952
0.292934
0.292913
0.292887
0.292856
0.292827
0.292779
0.292802
0.292827
0.292848
0.292866
0.292881
0.292894
0.292904
0.292911
0.292915
0.292918
0.292918
0.292916
0.292913
0.292908
0.292903
0.292896
0.292889
0.292881
0.292872
0.292864
0.292855
0.292846
0.292837
0.292829
0.292821
0.292813
0.292805
0.292798
0.292791
0.292785
0.29278
0.292775
0.29277
0.292767
0.292763
0.292761
0.292759
0.292758
0.292757
0.292757
0.292758
0.292759
0.292761
0.292763
0.292767
0.29277
0.292775
0.29278
0.292785
0.292791
0.292798
0.292805
0.292813
0.292821
0.292829
0.292837
0.292846
0.292855
0.292864
0.292872
0.292881
0.292889
0.292896
0.292903
0.292908
0.292913
0.292916
0.292918
0.292918
0.292915
0.292911
0.292904
0.292894
0.292881
0.292866
0.292848
0.292827
0.292802
0.292779
0.292737
0.292755
0.292776
0.292793
0.292808
0.292821
0.292832
0.292841
0.292848
0.292853
0.292856
0.292858
0.292858
0.292857
0.292854
0.29285
0.292846
0.292841
0.292835
0.292829
0.292823
0.292816
0.292809
0.292802
0.292796
0.292789
0.292783
0.292777
0.292771
0.292766
0.292761
0.292756
0.292752
0.292748
0.292745
0.292742
0.29274
0.292739
0.292738
0.292737
0.292737
0.292738
0.292739
0.29274
0.292742
0.292745
0.292748
0.292752
0.292756
0.292761
0.292766
0.292771
0.292777
0.292783
0.292789
0.292796
0.292802
0.292809
0.292816
0.292823
0.292829
0.292835
0.292841
0.292846
0.29285
0.292854
0.292857
0.292858
0.292858
0.292856
0.292853
0.292848
0.292841
0.292832
0.292821
0.292808
0.292793
0.292776
0.292755
0.292737
0.292699
0.292715
0.292731
0.292745
0.292758
0.292769
0.292779
0.292787
0.292793
0.292798
0.292802
0.292804
0.292805
0.292805
0.292804
0.292802
0.292799
0.292796
0.292792
0.292787
0.292783
0.292778
0.292772
0.292767
0.292762
0.292757
0.292752
0.292747
0.292743
0.292738
0.292734
0.29273
0.292727
0.292724
0.292722
0.292719
0.292718
0.292716
0.292715
0.292715
0.292715
0.292715
0.292716
0.292718
0.292719
0.292722
0.292724
0.292727
0.29273
0.292734
0.292738
0.292743
0.292747
0.292752
0.292757
0.292762
0.292767
0.292772
0.292778
0.292783
0.292787
0.292792
0.292796
0.292799
0.292802
0.292804
0.292805
0.292805
0.292804
0.292802
0.292798
0.292793
0.292787
0.292779
0.292769
0.292758
0.292745
0.292731
0.292715
0.292699
0.292665
0.292678
0.292691
0.292703
0.292713
0.292723
0.292731
0.292738
0.292744
0.292749
0.292753
0.292755
0.292757
0.292758
0.292757
0.292757
0.292755
0.292753
0.29275
0.292747
0.292744
0.29274
0.292736
0.292732
0.292728
0.292724
0.292721
0.292717
0.292713
0.29271
0.292706
0.292703
0.292701
0.292698
0.292696
0.292695
0.292693
0.292692
0.292691
0.292691
0.292691
0.292691
0.292692
0.292693
0.292695
0.292696
0.292698
0.292701
0.292703
0.292706
0.29271
0.292713
0.292717
0.292721
0.292724
0.292728
0.292732
0.292736
0.29274
0.292744
0.292747
0.29275
0.292753
0.292755
0.292757
0.292757
0.292758
0.292757
0.292755
0.292753
0.292749
0.292744
0.292738
0.292731
0.292723
0.292713
0.292703
0.292691
0.292678
0.292665
0.292634
0.292644
0.292655
0.292664
0.292673
0.292681
0.292688
0.292695
0.2927
0.292704
0.292708
0.292711
0.292713
0.292714
0.292714
0.292714
0.292713
0.292712
0.29271
0.292708
0.292706
0.292703
0.292701
0.292698
0.292695
0.292692
0.292689
0.292686
0.292683
0.29268
0.292678
0.292675
0.292673
0.292671
0.29267
0.292668
0.292667
0.292666
0.292666
0.292665
0.292665
0.292666
0.292666
0.292667
0.292668
0.29267
0.292671
0.292673
0.292675
0.292678
0.29268
0.292683
0.292686
0.292689
0.292692
0.292695
0.292698
0.292701
0.292703
0.292706
0.292708
0.29271
0.292712
0.292713
0.292714
0.292714
0.292714
0.292713
0.292711
0.292708
0.292704
0.2927
0.292695
0.292688
0.292681
0.292673
0.292664
0.292655
0.292644
0.292634
0.292604
0.292612
0.292621
0.292629
0.292636
0.292643
0.292649
0.292655
0.292659
0.292663
0.292667
0.292669
0.292671
0.292673
0.292673
0.292674
0.292674
0.292673
0.292672
0.292671
0.292669
0.292667
0.292666
0.292663
0.292661
0.292659
0.292657
0.292655
0.292653
0.29265
0.292648
0.292647
0.292645
0.292643
0.292642
0.292641
0.29264
0.292639
0.292639
0.292639
0.292639
0.292639
0.292639
0.29264
0.292641
0.292642
0.292643
0.292645
0.292647
0.292648
0.29265
0.292653
0.292655
0.292657
0.292659
0.292661
0.292663
0.292666
0.292667
0.292669
0.292671
0.292672
0.292673
0.292674
0.292674
0.292673
0.292673
0.292671
0.292669
0.292667
0.292663
0.292659
0.292655
0.292649
0.292643
0.292636
0.292629
0.292621
0.292612
0.292604
0.292575
0.292582
0.292589
0.292596
0.292602
0.292607
0.292612
0.292617
0.292621
0.292625
0.292628
0.29263
0.292632
0.292634
0.292635
0.292636
0.292636
0.292636
0.292635
0.292635
0.292634
0.292632
0.292631
0.29263
0.292628
0.292627
0.292625
0.292623
0.292622
0.29262
0.292619
0.292617
0.292616
0.292615
0.292614
0.292613
0.292612
0.292612
0.292611
0.292611
0.292611
0.292611
0.292612
0.292612
0.292613
0.292614
0.292615
0.292616
0.292617
0.292619
0.29262
0.292622
0.292623
0.292625
0.292627
0.292628
0.29263
0.292631
0.292632
0.292634
0.292635
0.292635
0.292636
0.292636
0.292636
0.292635
0.292634
0.292632
0.29263
0.292628
0.292625
0.292621
0.292617
0.292612
0.292607
0.292602
0.292596
0.292589
0.292582
0.292575
0.292547
0.292552
0.292558
0.292564
0.292569
0.292573
0.292578
0.292582
0.292585
0.292589
0.292591
0.292594
0.292596
0.292597
0.292598
0.292599
0.2926
0.2926
0.2926
0.292599
0.292599
0.292598
0.292597
0.292596
0.292595
0.292594
0.292593
0.292592
0.292591
0.29259
0.292589
0.292587
0.292587
0.292586
0.292585
0.292584
0.292584
0.292583
0.292583
0.292583
0.292583
0.292583
0.292583
0.292584
0.292584
0.292585
0.292586
0.292587
0.292587
0.292589
0.29259
0.292591
0.292592
0.292593
0.292594
0.292595
0.292596
0.292597
0.292598
0.292599
0.292599
0.2926
0.2926
0.2926
0.292599
0.292598
0.292597
0.292596
0.292594
0.292591
0.292589
0.292585
0.292582
0.292578
0.292573
0.292569
0.292564
0.292558
0.292552
0.292547
0.292519
0.292524
0.292528
0.292533
0.292537
0.292541
0.292545
0.292548
0.292551
0.292554
0.292557
0.292559
0.29256
0.292562
0.292563
0.292564
0.292565
0.292565
0.292565
0.292565
0.292565
0.292565
0.292564
0.292564
0.292563
0.292562
0.292561
0.292561
0.29256
0.292559
0.292558
0.292557
0.292557
0.292556
0.292556
0.292555
0.292555
0.292554
0.292554
0.292554
0.292554
0.292554
0.292554
0.292555
0.292555
0.292556
0.292556
0.292557
0.292557
0.292558
0.292559
0.29256
0.292561
0.292561
0.292562
0.292563
0.292564
0.292564
0.292565
0.292565
0.292565
0.292565
0.292565
0.292565
0.292564
0.292563
0.292562
0.29256
0.292559
0.292557
0.292554
0.292551
0.292548
0.292545
0.292541
0.292537
0.292533
0.292528
0.292524
0.292519
0.292492
0.292495
0.292499
0.292503
0.292506
0.29251
0.292513
0.292516
0.292518
0.292521
0.292523
0.292525
0.292527
0.292528
0.292529
0.29253
0.292531
0.292531
0.292532
0.292532
0.292532
0.292532
0.292532
0.292531
0.292531
0.29253
0.29253
0.292529
0.292529
0.292528
0.292528
0.292527
0.292527
0.292526
0.292526
0.292525
0.292525
0.292525
0.292525
0.292525
0.292525
0.292525
0.292525
0.292525
0.292525
0.292526
0.292526
0.292527
0.292527
0.292528
0.292528
0.292529
0.292529
0.29253
0.29253
0.292531
0.292531
0.292532
0.292532
0.292532
0.292532
0.292532
0.292531
0.292531
0.29253
0.292529
0.292528
0.292527
0.292525
0.292523
0.292521
0.292518
0.292516
0.292513
0.29251
0.292506
0.292503
0.292499
0.292495
0.292492
0.292465
0.292467
0.292471
0.292474
0.292477
0.292479
0.292482
0.292484
0.292487
0.292489
0.292491
0.292492
0.292494
0.292495
0.292496
0.292497
0.292498
0.292498
0.292499
0.292499
0.292499
0.2925
0.292499
0.292499
0.292499
0.292499
0.292499
0.292498
0.292498
0.292498
0.292497
0.292497
0.292497
0.292496
0.292496
0.292496
0.292495
0.292495
0.292495
0.292495
0.292495
0.292495
0.292495
0.292495
0.292496
0.292496
0.292496
0.292497
0.292497
0.292497
0.292498
0.292498
0.292498
0.292499
0.292499
0.292499
0.292499
0.292499
0.2925
0.292499
0.292499
0.292499
0.292498
0.292498
0.292497
0.292496
0.292495
0.292494
0.292492
0.292491
0.292489
0.292487
0.292484
0.292482
0.292479
0.292477
0.292474
0.292471
0.292467
0.292465
0.292437
0.29244
0.292442
0.292445
0.292447
0.292449
0.292451
0.292454
0.292455
0.292457
0.292459
0.29246
0.292462
0.292463
0.292464
0.292465
0.292466
0.292466
0.292467
0.292467
0.292467
0.292468
0.292468
0.292468
0.292468
0.292468
0.292468
0.292467
0.292467
0.292467
0.292467
0.292466
0.292466
0.292466
0.292466
0.292466
0.292466
0.292465
0.292465
0.292465
0.292465
0.292465
0.292465
0.292466
0.292466
0.292466
0.292466
0.292466
0.292466
0.292467
0.292467
0.292467
0.292467
0.292468
0.292468
0.292468
0.292468
0.292468
0.292468
0.292467
0.292467
0.292467
0.292466
0.292466
0.292465
0.292464
0.292463
0.292462
0.29246
0.292459
0.292457
0.292455
0.292454
0.292451
0.292449
0.292447
0.292445
0.292442
0.29244
0.292437
0.29241
0.292412
0.292414
0.292416
0.292418
0.29242
0.292422
0.292423
0.292425
0.292426
0.292428
0.292429
0.29243
0.292431
0.292432
0.292433
0.292434
0.292435
0.292435
0.292436
0.292436
0.292436
0.292436
0.292436
0.292437
0.292437
0.292437
0.292437
0.292436
0.292436
0.292436
0.292436
0.292436
0.292436
0.292436
0.292436
0.292436
0.292436
0.292435
0.292435
0.292435
0.292435
0.292436
0.292436
0.292436
0.292436
0.292436
0.292436
0.292436
0.292436
0.292436
0.292436
0.292437
0.292437
0.292437
0.292437
0.292436
0.292436
0.292436
0.292436
0.292436
0.292435
0.292435
0.292434
0.292433
0.292432
0.292431
0.29243
0.292429
0.292428
0.292426
0.292425
0.292423
0.292422
0.29242
0.292418
0.292416
0.292414
0.292412
0.29241
0.292383
0.292384
0.292386
0.292387
0.292389
0.292391
0.292392
0.292393
0.292395
0.292396
0.292397
0.292398
0.2924
0.2924
0.292401
0.292402
0.292403
0.292403
0.292404
0.292404
0.292405
0.292405
0.292405
0.292406
0.292406
0.292406
0.292406
0.292406
0.292406
0.292406
0.292406
0.292406
0.292406
0.292406
0.292406
0.292406
0.292406
0.292405
0.292405
0.292405
0.292405
0.292405
0.292405
0.292406
0.292406
0.292406
0.292406
0.292406
0.292406
0.292406
0.292406
0.292406
0.292406
0.292406
0.292406
0.292406
0.292406
0.292405
0.292405
0.292405
0.292404
0.292404
0.292403
0.292403
0.292402
0.292401
0.2924
0.2924
0.292398
0.292397
0.292396
0.292395
0.292393
0.292392
0.292391
0.292389
0.292387
0.292386
0.292384
0.292383
0.292355
0.292356
0.292358
0.292359
0.29236
0.292361
0.292363
0.292364
0.292365
0.292366
0.292367
0.292368
0.292369
0.29237
0.292371
0.292371
0.292372
0.292373
0.292373
0.292374
0.292374
0.292374
0.292375
0.292375
0.292375
0.292375
0.292375
0.292375
0.292375
0.292375
0.292375
0.292375
0.292375
0.292375
0.292375
0.292375
0.292375
0.292375
0.292375
0.292375
0.292375
0.292375
0.292375
0.292375
0.292375
0.292375
0.292375
0.292375
0.292375
0.292375
0.292375
0.292375
0.292375
0.292375
0.292375
0.292375
0.292375
0.292375
0.292374
0.292374
0.292374
0.292373
0.292373
0.292372
0.292371
0.292371
0.29237
0.292369
0.292368
0.292367
0.292366
0.292365
0.292364
0.292363
0.292361
0.29236
0.292359
0.292358
0.292356
0.292355
0.292327
0.292328
0.292329
0.29233
0.292331
0.292332
0.292333
0.292334
0.292335
0.292336
0.292337
0.292338
0.292339
0.29234
0.29234
0.292341
0.292342
0.292342
0.292343
0.292343
0.292343
0.292344
0.292344
0.292344
0.292344
0.292345
0.292345
0.292345
0.292345
0.292345
0.292345
0.292345
0.292345
0.292345
0.292345
0.292345
0.292345
0.292345
0.292345
0.292345
0.292345
0.292345
0.292345
0.292345
0.292345
0.292345
0.292345
0.292345
0.292345
0.292345
0.292345
0.292345
0.292345
0.292345
0.292345
0.292344
0.292344
0.292344
0.292344
0.292343
0.292343
0.292343
0.292342
0.292342
0.292341
0.29234
0.29234
0.292339
0.292338
0.292337
0.292336
0.292335
0.292334
0.292333
0.292332
0.292331
0.29233
0.292329
0.292328
0.292327
0.2923
0.2923
0.292301
0.292302
0.292303
0.292304
0.292304
0.292305
0.292306
0.292307
0.292308
0.292308
0.292309
0.29231
0.29231
0.292311
0.292311
0.292312
0.292312
0.292313
0.292313
0.292313
0.292314
0.292314
0.292314
0.292314
0.292314
0.292315
0.292315
0.292315
0.292315
0.292315
0.292315
0.292315
0.292315
0.292315
0.292315
0.292315
0.292315
0.292315
0.292315
0.292315
0.292315
0.292315
0.292315
0.292315
0.292315
0.292315
0.292315
0.292315
0.292315
0.292315
0.292315
0.292314
0.292314
0.292314
0.292314
0.292314
0.292313
0.292313
0.292313
0.292312
0.292312
0.292311
0.292311
0.29231
0.29231
0.292309
0.292308
0.292308
0.292307
0.292306
0.292305
0.292304
0.292304
0.292303
0.292302
0.292301
0.2923
0.2923
0.292271
0.292272
0.292273
0.292273
0.292274
0.292275
0.292275
0.292276
0.292277
0.292277
0.292278
0.292279
0.292279
0.29228
0.29228
0.292281
0.292281
0.292282
0.292282
0.292282
0.292283
0.292283
0.292283
0.292284
0.292284
0.292284
0.292284
0.292284
0.292285
0.292285
0.292285
0.292285
0.292285
0.292285
0.292285
0.292285
0.292285
0.292285
0.292285
0.292285
0.292285
0.292285
0.292285
0.292285
0.292285
0.292285
0.292285
0.292285
0.292285
0.292285
0.292285
0.292285
0.292284
0.292284
0.292284
0.292284
0.292284
0.292283
0.292283
0.292283
0.292282
0.292282
0.292282
0.292281
0.292281
0.29228
0.29228
0.292279
0.292279
0.292278
0.292277
0.292277
0.292276
0.292275
0.292275
0.292274
0.292273
0.292273
0.292272
0.292271
0.292243
0.292244
0.292244
0.292245
0.292245
0.292246
0.292246
0.292247
0.292247
0.292248
0.292249
0.292249
0.29225
0.29225
0.292251
0.292251
0.292251
0.292252
0.292252
0.292252
0.292253
0.292253
0.292253
0.292254
0.292254
0.292254
0.292254
0.292254
0.292254
0.292255
0.292255
0.292255
0.292255
0.292255
0.292255
0.292255
0.292255
0.292255
0.292255
0.292255
0.292255
0.292255
0.292255
0.292255
0.292255
0.292255
0.292255
0.292255
0.292255
0.292255
0.292255
0.292254
0.292254
0.292254
0.292254
0.292254
0.292254
0.292253
0.292253
0.292253
0.292252
0.292252
0.292252
0.292251
0.292251
0.292251
0.29225
0.29225
0.292249
0.292249
0.292248
0.292247
0.292247
0.292246
0.292246
0.292245
0.292245
0.292244
0.292244
0.292243
0.292215
0.292215
0.292216
0.292216
0.292217
0.292217
0.292217
0.292218
0.292218
0.292219
0.292219
0.29222
0.29222
0.29222
0.292221
0.292221
0.292222
0.292222
0.292222
0.292223
0.292223
0.292223
0.292223
0.292224
0.292224
0.292224
0.292224
0.292224
0.292224
0.292225
0.292225
0.292225
0.292225
0.292225
0.292225
0.292225
0.292225
0.292225
0.292225
0.292225
0.292225
0.292225
0.292225
0.292225
0.292225
0.292225
0.292225
0.292225
0.292225
0.292225
0.292225
0.292224
0.292224
0.292224
0.292224
0.292224
0.292224
0.292223
0.292223
0.292223
0.292223
0.292222
0.292222
0.292222
0.292221
0.292221
0.29222
0.29222
0.29222
0.292219
0.292219
0.292218
0.292218
0.292217
0.292217
0.292217
0.292216
0.292216
0.292215
0.292215
0.292186
0.292187
0.292187
0.292187
0.292188
0.292188
0.292188
0.292189
0.292189
0.292189
0.29219
0.29219
0.292191
0.292191
0.292191
0.292192
0.292192
0.292192
0.292192
0.292193
0.292193
0.292193
0.292193
0.292194
0.292194
0.292194
0.292194
0.292194
0.292195
0.292195
0.292195
0.292195
0.292195
0.292195
0.292195
0.292195
0.292195
0.292195
0.292195
0.292195
0.292195
0.292195
0.292195
0.292195
0.292195
0.292195
0.292195
0.292195
0.292195
0.292195
0.292195
0.292195
0.292194
0.292194
0.292194
0.292194
0.292194
0.292193
0.292193
0.292193
0.292193
0.292192
0.292192
0.292192
0.292192
0.292191
0.292191
0.292191
0.29219
0.29219
0.292189
0.292189
0.292189
0.292188
0.292188
0.292188
0.292187
0.292187
0.292187
0.292186
0.292158
0.292158
0.292158
0.292159
0.292159
0.292159
0.292159
0.29216
0.29216
0.29216
0.292161
0.292161
0.292161
0.292161
0.292162
0.292162
0.292162
0.292163
0.292163
0.292163
0.292163
0.292163
0.292164
0.292164
0.292164
0.292164
0.292164
0.292165
0.292165
0.292165
0.292165
0.292165
0.292165
0.292165
0.292165
0.292165
0.292165
0.292165
0.292165
0.292165
0.292165
0.292165
0.292165
0.292165
0.292165
0.292165
0.292165
0.292165
0.292165
0.292165
0.292165
0.292165
0.292165
0.292164
0.292164
0.292164
0.292164
0.292164
0.292163
0.292163
0.292163
0.292163
0.292163
0.292162
0.292162
0.292162
0.292161
0.292161
0.292161
0.292161
0.29216
0.29216
0.29216
0.292159
0.292159
0.292159
0.292159
0.292158
0.292158
0.292158
0.292129
0.292129
0.292129
0.29213
0.29213
0.29213
0.29213
0.29213
0.292131
0.292131
0.292131
0.292131
0.292132
0.292132
0.292132
0.292132
0.292133
0.292133
0.292133
0.292133
0.292134
0.292134
0.292134
0.292134
0.292134
0.292134
0.292135
0.292135
0.292135
0.292135
0.292135
0.292135
0.292135
0.292135
0.292135
0.292135
0.292135
0.292135
0.292135
0.292135
0.292135
0.292135
0.292135
0.292135
0.292135
0.292135
0.292135
0.292135
0.292135
0.292135
0.292135
0.292135
0.292135
0.292135
0.292134
0.292134
0.292134
0.292134
0.292134
0.292134
0.292133
0.292133
0.292133
0.292133
0.292132
0.292132
0.292132
0.292132
0.292131
0.292131
0.292131
0.292131
0.29213
0.29213
0.29213
0.29213
0.29213
0.292129
0.292129
0.292129
0.2921
0.2921
0.2921
0.292101
0.292101
0.292101
0.292101
0.292101
0.292102
0.292102
0.292102
0.292102
0.292102
0.292103
0.292103
0.292103
0.292103
0.292103
0.292104
0.292104
0.292104
0.292104
0.292104
0.292104
0.292105
0.292105
0.292105
0.292105
0.292105
0.292105
0.292105
0.292105
0.292105
0.292105
0.292106
0.292106
0.292106
0.292106
0.292106
0.292106
0.292106
0.292106
0.292106
0.292106
0.292106
0.292106
0.292105
0.292105
0.292105
0.292105
0.292105
0.292105
0.292105
0.292105
0.292105
0.292105
0.292104
0.292104
0.292104
0.292104
0.292104
0.292104
0.292103
0.292103
0.292103
0.292103
0.292103
0.292102
0.292102
0.292102
0.292102
0.292102
0.292101
0.292101
0.292101
0.292101
0.292101
0.2921
0.2921
0.2921
0.292071
0.292071
0.292071
0.292072
0.292072
0.292072
0.292072
0.292072
0.292072
0.292072
0.292073
0.292073
0.292073
0.292073
0.292073
0.292073
0.292074
0.292074
0.292074
0.292074
0.292074
0.292074
0.292075
0.292075
0.292075
0.292075
0.292075
0.292075
0.292075
0.292075
0.292075
0.292076
0.292076
0.292076
0.292076
0.292076
0.292076
0.292076
0.292076
0.292076
0.292076
0.292076
0.292076
0.292076
0.292076
0.292076
0.292076
0.292076
0.292076
0.292075
0.292075
0.292075
0.292075
0.292075
0.292075
0.292075
0.292075
0.292075
0.292074
0.292074
0.292074
0.292074
0.292074
0.292074
0.292073
0.292073
0.292073
0.292073
0.292073
0.292073
0.292072
0.292072
0.292072
0.292072
0.292072
0.292072
0.292072
0.292071
0.292071
0.292071
0.292042
0.292042
0.292042
0.292042
0.292043
0.292043
0.292043
0.292043
0.292043
0.292043
0.292043
0.292043
0.292044
0.292044
0.292044
0.292044
0.292044
0.292044
0.292044
0.292045
0.292045
0.292045
0.292045
0.292045
0.292045
0.292045
0.292045
0.292046
0.292046
0.292046
0.292046
0.292046
0.292046
0.292046
0.292046
0.292046
0.292046
0.292046
0.292046
0.292046
0.292046
0.292046
0.292046
0.292046
0.292046
0.292046
0.292046
0.292046
0.292046
0.292046
0.292046
0.292046
0.292046
0.292045
0.292045
0.292045
0.292045
0.292045
0.292045
0.292045
0.292045
0.292044
0.292044
0.292044
0.292044
0.292044
0.292044
0.292044
0.292043
0.292043
0.292043
0.292043
0.292043
0.292043
0.292043
0.292043
0.292042
0.292042
0.292042
0.292042
0.292013
0.292013
0.292013
0.292013
0.292013
0.292013
0.292014
0.292014
0.292014
0.292014
0.292014
0.292014
0.292014
0.292014
0.292014
0.292015
0.292015
0.292015
0.292015
0.292015
0.292015
0.292015
0.292015
0.292015
0.292016
0.292016
0.292016
0.292016
0.292016
0.292016
0.292016
0.292016
0.292016
0.292016
0.292016
0.292016
0.292016
0.292016
0.292016
0.292016
0.292016
0.292016
0.292016
0.292016
0.292016
0.292016
0.292016
0.292016
0.292016
0.292016
0.292016
0.292016
0.292016
0.292016
0.292016
0.292016
0.292015
0.292015
0.292015
0.292015
0.292015
0.292015
0.292015
0.292015
0.292015
0.292014
0.292014
0.292014
0.292014
0.292014
0.292014
0.292014
0.292014
0.292014
0.292013
0.292013
0.292013
0.292013
0.292013
0.292013
0.291984
0.291984
0.291984
0.291984
0.291984
0.291984
0.291984
0.291984
0.291984
0.291985
0.291985
0.291985
0.291985
0.291985
0.291985
0.291985
0.291985
0.291985
0.291985
0.291986
0.291986
0.291986
0.291986
0.291986
0.291986
0.291986
0.291986
0.291986
0.291986
0.291986
0.291986
0.291986
0.291987
0.291987
0.291987
0.291987
0.291987
0.291987
0.291987
0.291987
0.291987
0.291987
0.291987
0.291987
0.291987
0.291987
0.291987
0.291987
0.291986
0.291986
0.291986
0.291986
0.291986
0.291986
0.291986
0.291986
0.291986
0.291986
0.291986
0.291986
0.291986
0.291985
0.291985
0.291985
0.291985
0.291985
0.291985
0.291985
0.291985
0.291985
0.291985
0.291984
0.291984
0.291984
0.291984
0.291984
0.291984
0.291984
0.291984
0.291984
0.291955
0.291955
0.291955
0.291955
0.291955
0.291955
0.291955
0.291955
0.291955
0.291955
0.291955
0.291955
0.291955
0.291955
0.291956
0.291956
0.291956
0.291956
0.291956
0.291956
0.291956
0.291956
0.291956
0.291956
0.291956
0.291956
0.291957
0.291957
0.291957
0.291957
0.291957
0.291957
0.291957
0.291957
0.291957
0.291957
0.291957
0.291957
0.291957
0.291957
0.291957
0.291957
0.291957
0.291957
0.291957
0.291957
0.291957
0.291957
0.291957
0.291957
0.291957
0.291957
0.291957
0.291957
0.291956
0.291956
0.291956
0.291956
0.291956
0.291956
0.291956
0.291956
0.291956
0.291956
0.291956
0.291956
0.291955
0.291955
0.291955
0.291955
0.291955
0.291955
0.291955
0.291955
0.291955
0.291955
0.291955
0.291955
0.291955
0.291955
0.291926
0.291926
0.291926
0.291926
0.291926
0.291926
0.291926
0.291926
0.291926
0.291926
0.291926
0.291926
0.291926
0.291926
0.291926
0.291926
0.291926
0.291926
0.291926
0.291926
0.291927
0.291927
0.291927
0.291927
0.291927
0.291927
0.291927
0.291927
0.291927
0.291927
0.291927
0.291927
0.291927
0.291927
0.291927
0.291927
0.291927
0.291927
0.291927
0.291927
0.291927
0.291927
0.291927
0.291927
0.291927
0.291927
0.291927
0.291927
0.291927
0.291927
0.291927
0.291927
0.291927
0.291927
0.291927
0.291927
0.291927
0.291927
0.291927
0.291927
0.291926
0.291926
0.291926
0.291926
0.291926
0.291926
0.291926
0.291926
0.291926
0.291926
0.291926
0.291926
0.291926
0.291926
0.291926
0.291926
0.291926
0.291926
0.291926
0.291926
0.291896
0.291896
0.291896