/*--------------------------------*- C++ -*----------------------------------*\
  =========                 |
  \\      /  F ield         | OpenFOAM: The Open Source CFD Toolbox
   \\    /   O peration     | Website:  https://openfoam.org
    \\  /    A nd           | Version:  11
     \\/     M anipulation  |
\*---------------------------------------------------------------------------*/
FoamFile
{
    format      ascii;
    class       volScalarField;
    location    "20";
    object      C;
}
// * * * * * * * * * * * * * * * * * * * * * * * * * * * * * * * * * * * * * //

dimensions      [0 0 0 1 0 0 0];

internalField   nonuniform List<scalar> 
332800
(
3.08134e-65
3.02057e-65
2.91822e-65
2.78721e-65
2.63695e-65
2.47464e-65
2.30593e-65
2.13528e-65
1.96618e-65
1.80133e-65
1.64276e-65
1.49194e-65
1.34987e-65
1.21716e-65
1.09411e-65
9.80771e-66
8.76983e-66
7.82451e-66
6.96768e-66
6.19449e-66
5.49962e-66
4.87749e-66
4.32246e-66
3.82894e-66
3.39153e-66
3.00504e-66
2.66461e-66
2.36573e-66
2.10422e-66
1.87626e-66
1.67844e-66
1.50765e-66
1.36117e-66
1.2366e-66
1.13184e-66
1.04513e-66
9.74944e-67
9.20072e-67
8.79543e-67
8.52634e-67
8.38863e-67
8.37982e-67
8.4997e-67
8.75034e-67
9.13607e-67
9.66358e-67
1.03419e-66
1.11824e-66
1.21992e-66
1.34087e-66
1.48302e-66
1.64859e-66
1.84004e-66
2.06016e-66
2.31199e-66
2.59889e-66
2.92444e-66
3.29247e-66
3.70701e-66
4.17222e-66
4.6923e-66
5.27141e-66
5.91352e-66
6.62225e-66
7.40065e-66
8.25095e-66
9.17428e-66
1.01703e-65
1.12367e-65
1.23689e-65
1.35594e-65
1.47972e-65
1.60671e-65
1.73487e-65
1.86158e-65
1.9835e-65
2.09637e-65
2.1948e-65
2.2717e-65
2.31737e-65
9.53513e-65
9.39375e-65
9.14066e-65
8.80148e-65
8.39821e-65
7.94964e-65
7.47172e-65
6.97783e-65
6.47907e-65
5.98448e-65
5.50126e-65
5.035e-65
4.58988e-65
4.16886e-65
3.77387e-65
3.40598e-65
3.06557e-65
2.75242e-65
2.4659e-65
2.20503e-65
1.96859e-65
1.75519e-65
1.56334e-65
1.39152e-65
1.23818e-65
1.10181e-65
9.80957e-66
8.74241e-66
7.80362e-66
6.98118e-66
6.26409e-66
5.64233e-66
5.10694e-66
4.64995e-66
4.26439e-66
3.94424e-66
3.68443e-66
3.48073e-66
3.32984e-66
3.22924e-66
3.17724e-66
3.17295e-66
3.21626e-66
3.30782e-66
3.44908e-66
3.64224e-66
3.8903e-66
4.19706e-66
4.56712e-66
5.00592e-66
5.51971e-66
6.11557e-66
6.80141e-66
7.58595e-66
8.47862e-66
9.48957e-66
1.06295e-65
1.19096e-65
1.33412e-65
1.49358e-65
1.67042e-65
1.86569e-65
2.0803e-65
2.31496e-65
2.57015e-65
2.84603e-65
3.1423e-65
3.45817e-65
3.79217e-65
4.14209e-65
4.50478e-65
4.87604e-65
5.25048e-65
5.62129e-65
5.98014e-65
6.31699e-65
6.61985e-65
6.8746e-65
7.0647e-65
7.17091e-65
1.65908e-64
1.63794e-64
1.59929e-64
1.5465e-64
1.48268e-64
1.41063e-64
1.33283e-64
1.25144e-64
1.1683e-64
1.08499e-64
1.00277e-64
9.22694e-65
8.45563e-65
7.71987e-65
7.02399e-65
6.37082e-65
5.76192e-65
5.19781e-65
4.67812e-65
4.20185e-65
3.76746e-65
3.37304e-65
3.0164e-65
2.69522e-65
2.40708e-65
2.14954e-65
1.92022e-65
1.7168e-65
1.53709e-65
1.37903e-65
1.24069e-65
1.12032e-65
1.01634e-65
9.27315e-66
8.52003e-66
7.89311e-66
7.38312e-66
6.98236e-66
6.6847e-66
6.48551e-66
6.38163e-66
6.37135e-66
6.45437e-66
6.63185e-66
6.9063e-66
7.28168e-66
7.76334e-66
8.35804e-66
9.07396e-66
9.92067e-66
1.09092e-65
1.20517e-65
1.33621e-65
1.4855e-65
1.65465e-65
1.84534e-65
2.05932e-65
2.29838e-65
2.5643e-65
2.8588e-65
3.1835e-65
3.5398e-65
3.92885e-65
4.35138e-65
4.80765e-65
5.29726e-65
5.81904e-65
6.37085e-65
6.94943e-65
7.5502e-65
8.1671e-65
8.79235e-65
9.41629e-65
1.00272e-64
1.06112e-64
1.11521e-64
1.16312e-64
1.20276e-64
1.23179e-64
1.24766e-64
2.45217e-64
2.42403e-64
2.372e-64
2.30022e-64
2.21259e-64
2.11275e-64
2.00398e-64
1.88924e-64
1.77109e-64
1.65178e-64
1.53317e-64
1.41682e-64
1.30397e-64
1.19561e-64
1.09246e-64
9.95036e-65
9.03662e-65
8.18509e-65
7.39616e-65
6.66914e-65
6.00251e-65
5.39408e-65
4.8412e-65
4.3409e-65
3.88999e-65
3.48519e-65
3.12321e-65
2.80083e-65
2.51492e-65
2.26254e-65
2.0409e-65
1.84744e-65
1.67982e-65
1.53592e-65
1.41387e-65
1.31203e-65
1.229e-65
1.1636e-65
1.11491e-65
1.0822e-65
1.06499e-65
1.063e-65
1.07618e-65
1.10469e-65
1.14891e-65
1.2094e-65
1.28698e-65
1.38263e-65
1.49757e-65
1.6332e-65
1.79112e-65
1.97311e-65
2.18116e-65
2.41735e-65
2.68395e-65
2.9833e-65
3.31778e-65
3.6898e-65
4.10169e-65
4.55564e-65
5.0536e-65
5.59716e-65
6.18745e-65
6.82494e-65
7.50933e-65
8.23933e-65
9.01245e-65
9.82484e-65
1.0671e-64
1.15436e-64
1.24333e-64
1.33284e-64
1.42148e-64
1.50758e-64
1.5892e-64
1.66414e-64
1.7299e-64
1.78379e-64
1.82284e-64
1.84397e-64
3.36041e-64
3.32469e-64
3.25825e-64
3.16601e-64
3.05273e-64
2.92288e-64
2.78058e-64
2.62957e-64
2.4732e-64
2.31439e-64
2.15563e-64
1.99905e-64
1.84638e-64
1.699e-64
1.55798e-64
1.42411e-64
1.29793e-64
1.17977e-64
1.06978e-64
9.6795e-65
8.74151e-65
7.88164e-65
7.09691e-65
6.38384e-65
5.73857e-65
5.15703e-65
4.63505e-65
4.1685e-65
3.75332e-65
3.38562e-65
3.06172e-65
2.77817e-65
2.53182e-65
2.3198e-65
2.13955e-65
1.98881e-65
1.86565e-65
1.76843e-65
1.69586e-65
1.64693e-65
1.62095e-65
1.61753e-65
1.63657e-65
1.67828e-65
1.74315e-65
1.83198e-65
1.94582e-65
2.08603e-65
2.25424e-65
2.45233e-65
2.68244e-65
2.94694e-65
3.24842e-65
3.58963e-65
3.97347e-65
4.40294e-65
4.88104e-65
5.41073e-65
5.99482e-65
6.63587e-65
7.33602e-65
8.0969e-65
8.9194e-65
9.80351e-65
1.07481e-64
1.17507e-64
1.28072e-64
1.39117e-64
1.50561e-64
1.623e-64
1.74203e-64
1.86113e-64
1.97842e-64
2.09169e-64
2.19844e-64
2.29586e-64
2.38086e-64
2.45007e-64
2.49993e-64
2.52674e-64
4.41385e-64
4.36958e-64
4.28693e-64
4.17175e-64
4.02972e-64
3.86624e-64
3.68636e-64
3.49468e-64
3.29538e-64
3.09211e-64
2.88808e-64
2.686e-64
2.48815e-64
2.29637e-64
2.11212e-64
1.9365e-64
1.7703e-64
1.61404e-64
1.46801e-64
1.33228e-64
1.20679e-64
1.09131e-64
9.85537e-65
8.89078e-65
8.01483e-65
7.22271e-65
6.50939e-65
5.86979e-65
5.29887e-65
4.79177e-65
4.34383e-65
3.95068e-65
3.60826e-65
3.31288e-65
3.0612e-65
2.8503e-65
2.67763e-65
2.54107e-65
2.43887e-65
2.36971e-65
2.33267e-65
2.3272e-65
2.35317e-65
2.41081e-65
2.50076e-65
2.62401e-65
2.78194e-65
2.97628e-65
3.20908e-65
3.48277e-65
3.80005e-65
4.1639e-65
4.57757e-65
5.04448e-65
5.5682e-65
6.15237e-65
6.8006e-65
7.51638e-65
8.30294e-65
9.16311e-65
1.00992e-64
1.11126e-64
1.22039e-64
1.33725e-64
1.4616e-64
1.59307e-64
1.73105e-64
1.8747e-64
2.02294e-64
2.17438e-64
2.32731e-64
2.47969e-64
2.62912e-64
2.77284e-64
2.90774e-64
3.03035e-64
3.13688e-64
3.22328e-64
3.28528e-64
3.31849e-64
5.64653e-64
5.5924e-64
5.49107e-64
5.34949e-64
5.17443e-64
4.97238e-64
4.74942e-64
4.51114e-64
4.26262e-64
4.00839e-64
3.75241e-64
3.49808e-64
3.24827e-64
3.00535e-64
2.77121e-64
2.54732e-64
2.33474e-64
2.13424e-64
1.94625e-64
1.77096e-64
1.60837e-64
1.45829e-64
1.32039e-64
1.19425e-64
1.07935e-64
9.7515e-65
8.81044e-65
7.96429e-65
7.20699e-65
6.53261e-65
5.93544e-65
5.41008e-65
4.95151e-65
4.55509e-65
4.21667e-65
3.93253e-65
3.69948e-65
3.5148e-65
3.37627e-65
3.2822e-65
3.23138e-65
3.22311e-65
3.25718e-65
3.33387e-65
3.45394e-65
3.61863e-65
3.82962e-65
4.08907e-65
4.39952e-65
4.76393e-65
5.18563e-65
5.66828e-65
6.2158e-65
6.83233e-65
7.52215e-65
8.28955e-65
9.13875e-65
1.00738e-64
1.10983e-64
1.22153e-64
1.34271e-64
1.4735e-64
1.6139e-64
1.76375e-64
1.92272e-64
2.09024e-64
2.26549e-64
2.44737e-64
2.63445e-64
2.82497e-64
3.01676e-64
3.20726e-64
3.39351e-64
3.57212e-64
3.73926e-64
3.89074e-64
4.02199e-64
4.12815e-64
4.20414e-64
4.24474e-64
7.09789e-64
7.03219e-64
6.90903e-64
6.73663e-64
6.52308e-64
6.27611e-64
6.00302e-64
5.71055e-64
5.40485e-64
5.0914e-64
4.77506e-64
4.46001e-64
4.14981e-64
3.84741e-64
3.55519e-64
3.27504e-64
3.00837e-64
2.75618e-64
2.51911e-64
2.29748e-64
2.09135e-64
1.90058e-64
1.72484e-64
1.56367e-64
1.41649e-64
1.28268e-64
1.16153e-64
1.05234e-64
9.54387e-65
8.66965e-65
7.89385e-65
7.20993e-65
6.61178e-65
6.09375e-65
5.6507e-65
5.2781e-65
4.97196e-65
4.72892e-65
4.54622e-65
4.42173e-65
4.35393e-65
4.34192e-65
4.38541e-65
4.48471e-65
4.64073e-65
4.85495e-65
5.12942e-65
5.46672e-65
5.86994e-65
6.34266e-65
6.88887e-65
7.51295e-65
8.21959e-65
9.01369e-65
9.90028e-65
1.08844e-64
1.19708e-64
1.31642e-64
1.44685e-64
1.58871e-64
1.74222e-64
1.90747e-64
2.08441e-64
2.27278e-64
2.47209e-64
2.68158e-64
2.90019e-64
3.1265e-64
3.35871e-64
3.5946e-64
3.83151e-64
4.06629e-64
4.2953e-64
4.51443e-64
4.71907e-64
4.90415e-64
5.06421e-64
5.19343e-64
5.28576e-64
5.33501e-64
8.81417e-64
8.73484e-64
8.58592e-64
8.37723e-64
8.11837e-64
7.81859e-64
7.48662e-64
7.13055e-64
6.75776e-64
6.37489e-64
5.9878e-64
5.60159e-64
5.22061e-64
4.84849e-64
4.4882e-64
4.14208e-64
3.81194e-64
3.49907e-64
3.20433e-64
2.92819e-64
2.67081e-64
2.4321e-64
2.21171e-64
2.00915e-64
1.82378e-64
1.65489e-64
1.50166e-64
1.36327e-64
1.23888e-64
1.12764e-64
1.02875e-64
9.41405e-65
8.64884e-65
7.98503e-65
7.41642e-65
6.93748e-65
6.54336e-65
6.22995e-65
5.99386e-65
5.83248e-65
5.74391e-65
5.72703e-65
5.78144e-65
5.90748e-65
6.10622e-65
6.3794e-65
6.72947e-65
7.15951e-65
7.67321e-65
8.27481e-65
8.96907e-65
9.76116e-65
1.06566e-64
1.16612e-64
1.27807e-64
1.40211e-64
1.53877e-64
1.68859e-64
1.852e-64
2.02935e-64
2.22087e-64
2.42662e-64
2.64645e-64
2.88e-64
3.1266e-64
3.38528e-64
3.65468e-64
3.93302e-64
4.21807e-64
4.50711e-64
4.79687e-64
5.08353e-64
5.36268e-64
5.62936e-64
5.87801e-64
6.10257e-64
6.29651e-64
6.45287e-64
6.56446e-64
6.62391e-64
1.085e-63
1.07545e-63
1.05751e-63
1.03234e-63
1.00109e-63
9.6487e-64
9.24714e-64
8.81594e-64
8.36395e-64
7.89917e-64
7.42864e-64
6.95854e-64
6.49413e-64
6.03985e-64
5.59933e-64
5.17547e-64
4.77051e-64
4.38609e-64
4.02332e-64
3.68287e-64
3.36499e-64
3.06962e-64
2.79645e-64
2.54492e-64
2.31433e-64
2.10385e-64
1.91257e-64
1.7395e-64
1.58368e-64
1.4441e-64
1.3198e-64
1.20986e-64
1.11339e-64
1.02959e-64
9.57703e-65
8.97069e-65
8.47104e-65
8.0731e-65
7.77278e-65
7.56686e-65
7.45304e-65
7.42992e-65
7.49698e-65
7.65458e-65
7.90396e-65
8.24718e-65
8.6871e-65
9.22739e-65
9.87238e-65
1.06271e-64
1.14972e-64
1.24887e-64
1.3608e-64
1.4862e-64
1.62575e-64
1.7801e-64
1.9499e-64
2.13573e-64
2.33808e-64
2.55733e-64
2.79368e-64
3.04716e-64
3.31754e-64
3.60431e-64
3.90662e-64
4.22323e-64
4.55243e-64
4.89206e-64
5.23936e-64
5.59102e-64
5.94308e-64
6.29091e-64
6.62921e-64
6.95201e-64
7.25266e-64
7.5239e-64
7.7579e-64
7.9464e-64
8.0808e-64
8.15235e-64
1.32704e-63
1.31557e-63
1.29399e-63
1.26371e-63
1.2261e-63
1.18246e-63
1.13405e-63
1.08201e-63
1.02743e-63
9.71243e-64
9.14307e-64
8.57363e-64
8.01047e-64
7.45896e-64
6.92351e-64
6.40768e-64
5.91421e-64
5.44514e-64
5.00189e-64
4.58532e-64
4.19582e-64
3.83338e-64
3.49768e-64
3.18812e-64
2.90391e-64
2.6441e-64
2.40762e-64
2.19337e-64
2.00017e-64
1.82688e-64
1.67235e-64
1.53547e-64
1.41522e-64
1.31062e-64
1.22079e-64
1.14493e-64
1.08233e-64
1.03241e-64
9.94672e-65
9.68722e-65
9.54284e-65
9.51184e-65
9.59356e-65
9.78839e-65
1.00977e-64
1.0524e-64
1.10707e-64
1.17419e-64
1.25428e-64
1.34793e-64
1.45581e-64
1.57862e-64
1.71712e-64
1.87209e-64
2.04433e-64
2.2346e-64
2.44363e-64
2.67209e-64
2.92052e-64
3.18932e-64
3.47869e-64
3.78861e-64
4.11875e-64
4.46844e-64
4.83661e-64
5.22169e-64
5.62162e-64
6.03372e-64
6.45466e-64
6.88042e-64
7.30623e-64
7.7265e-64
8.13489e-64
8.52422e-64
8.88653e-64
9.21314e-64
9.49472e-64
9.72139e-64
9.88291e-64
9.96885e-64
1.61525e-63
1.60148e-63
1.57559e-63
1.53922e-63
1.49402e-63
1.44156e-63
1.38332e-63
1.32069e-63
1.25494e-63
1.18722e-63
1.11855e-63
1.04981e-63
9.81767e-64
9.15075e-64
8.50265e-64
7.87769e-64
7.27922e-64
6.70975e-64
6.17103e-64
5.66417e-64
5.1897e-64
4.74768e-64
4.33777e-64
3.95933e-64
3.61145e-64
3.29304e-64
3.00288e-64
2.73966e-64
2.50203e-64
2.28862e-64
2.09809e-64
1.92914e-64
1.78054e-64
1.65115e-64
1.5399e-64
1.44585e-64
1.36817e-64
1.30614e-64
1.25917e-64
1.22678e-64
1.20866e-64
1.20457e-64
1.21445e-64
1.23833e-64
1.27636e-64
1.32885e-64
1.39617e-64
1.47883e-64
1.57744e-64
1.69269e-64
1.82534e-64
1.97624e-64
2.14627e-64
2.33633e-64
2.54735e-64
2.78023e-64
3.03579e-64
3.31479e-64
3.61784e-64
3.94537e-64
4.29759e-64
4.67441e-64
5.07538e-64
5.49966e-64
5.94589e-64
6.41218e-64
6.89598e-64
7.39404e-64
7.90236e-64
8.41607e-64
8.92943e-64
9.43575e-64
9.92741e-64
1.03958e-63
1.08315e-63
1.12239e-63
1.15621e-63
1.18343e-63
1.20281e-63
1.21311e-63
1.95885e-63
1.94234e-63
1.91129e-63
1.86766e-63
1.81342e-63
1.75044e-63
1.68049e-63
1.60524e-63
1.5262e-63
1.44474e-63
1.36209e-63
1.27931e-63
1.19732e-63
1.1169e-63
1.03869e-63
9.63221e-64
8.90891e-64
8.22008e-64
7.5679e-64
6.95373e-64
6.37828e-64
5.84168e-64
5.34358e-64
4.88326e-64
4.45969e-64
4.07161e-64
3.7176e-64
3.39613e-64
3.10562e-64
2.84445e-64
2.61106e-64
2.40391e-64
2.22153e-64
2.06258e-64
1.92579e-64
1.81005e-64
1.71435e-64
1.63784e-64
1.57982e-64
1.53973e-64
1.51717e-64
1.51187e-64
1.52373e-64
1.55279e-64
1.59924e-64
1.66342e-64
1.74577e-64
1.8469e-64
1.9675e-64
2.1084e-64
2.27049e-64
2.45475e-64
2.66223e-64
2.89397e-64
3.15106e-64
3.43453e-64
3.74535e-64
4.08436e-64
4.45227e-64
4.84955e-64
5.2764e-64
5.73266e-64
6.21776e-64
6.73063e-64
7.26961e-64
7.83238e-64
8.41586e-64
9.01612e-64
9.62834e-64
1.02467e-63
1.08642e-63
1.14729e-63
1.20637e-63
1.26263e-63
1.31492e-63
1.36202e-63
1.40259e-63
1.43522e-63
1.45845e-63
1.4708e-63
2.36884e-63
2.34905e-63
2.31184e-63
2.25955e-63
2.19451e-63
2.11897e-63
2.03505e-63
1.94474e-63
1.84985e-63
1.75201e-63
1.6527e-63
1.55319e-63
1.45457e-63
1.3578e-63
1.26364e-63
1.17271e-63
1.08552e-63
1.00243e-63
9.23705e-64
8.49516e-64
7.79952e-64
7.15036e-64
6.5473e-64
5.98953e-64
5.47587e-64
5.00486e-64
4.57485e-64
4.18403e-64
3.83055e-64
3.51252e-64
3.22807e-64
2.97539e-64
2.75276e-64
2.55857e-64
2.39132e-64
2.24969e-64
2.13249e-64
2.03869e-64
1.96747e-64
1.91815e-64
1.89025e-64
1.88345e-64
1.89763e-64
1.93283e-64
1.98926e-64
2.06731e-64
2.16753e-64
2.29059e-64
2.43734e-64
2.60873e-64
2.80581e-64
3.02975e-64
3.28174e-64
3.56305e-64
3.87491e-64
4.21853e-64
4.59503e-64
5.0054e-64
5.45044e-64
5.93066e-64
6.44626e-64
6.99701e-64
7.58218e-64
8.20045e-64
8.8498e-64
9.5274e-64
1.02295e-63
1.09515e-63
1.16874e-63
1.24304e-63
1.3172e-63
1.39028e-63
1.46117e-63
1.52865e-63
1.59137e-63
1.64783e-63
1.69645e-63
1.73554e-63
1.76337e-63
1.77816e-63
2.85834e-63
2.83465e-63
2.79007e-63
2.72742e-63
2.64949e-63
2.55896e-63
2.45836e-63
2.35007e-63
2.23625e-63
2.11887e-63
1.99967e-63
1.8802e-63
1.76176e-63
1.64548e-63
1.53229e-63
1.42294e-63
1.31803e-63
1.21801e-63
1.12318e-63
1.03377e-63
9.49889e-64
8.71561e-64
7.9875e-64
7.31364e-64
6.69266e-64
6.12285e-64
5.60228e-64
5.12884e-64
4.70033e-64
4.31453e-64
3.96923e-64
3.66229e-64
3.39167e-64
3.15545e-64
2.95188e-64
2.77935e-64
2.63648e-64
2.52205e-64
2.43505e-64
2.37469e-64
2.34038e-64
2.33176e-64
2.34865e-64
2.39111e-64
2.45938e-64
2.55393e-64
2.67537e-64
2.82452e-64
3.00237e-64
3.21003e-64
3.44875e-64
3.71988e-64
4.02486e-64
4.36513e-64
4.74217e-64
5.15738e-64
5.61207e-64
6.10739e-64
6.64423e-64
7.2232e-64
7.84447e-64
8.50774e-64
9.21211e-64
9.95593e-64
1.07368e-63
1.15512e-63
1.23948e-63
1.32618e-63
1.41452e-63
1.50367e-63
1.59264e-63
1.68027e-63
1.76526e-63
1.84614e-63
1.92129e-63
1.98893e-63
2.04716e-63
2.09397e-63
2.12729e-63
2.145e-63
3.44306e-63
3.41469e-63
3.36132e-63
3.2863e-63
3.19296e-63
3.08451e-63
2.96398e-63
2.83421e-63
2.69779e-63
2.55706e-63
2.41413e-63
2.27082e-63
2.12871e-63
1.98915e-63
1.85325e-63
1.72192e-63
1.59587e-63
1.47563e-63
1.36161e-63
1.25405e-63
1.15308e-63
1.05876e-63
9.71039e-64
8.8981e-64
8.14916e-64
7.46156e-64
6.83302e-64
6.26107e-64
5.7431e-64
5.27649e-64
4.85862e-64
4.48697e-64
4.15911e-64
3.87276e-64
3.62585e-64
3.41647e-64
3.24296e-64
3.10388e-64
2.99803e-64
2.92446e-64
2.88247e-64
2.87161e-64
2.8917e-64
2.94276e-64
3.02511e-64
3.13926e-64
3.28595e-64
3.46616e-64
3.68102e-64
3.93186e-64
4.22015e-64
4.54749e-64
4.91556e-64
5.32607e-64
5.78074e-64
6.28123e-64
6.82907e-64
7.42558e-64
8.07182e-64
8.76846e-64
9.51568e-64
1.03131e-63
1.11595e-63
1.2053e-63
1.29907e-63
1.39683e-63
1.49805e-63
1.60206e-63
1.708e-63
1.81488e-63
1.92152e-63
2.02653e-63
2.12835e-63
2.22522e-63
2.31521e-63
2.3962e-63
2.46591e-63
2.52194e-63
2.56182e-63
2.58301e-63
4.14176e-63
4.10781e-63
4.04391e-63
3.9541e-63
3.84235e-63
3.71248e-63
3.56813e-63
3.41269e-63
3.24926e-63
3.08064e-63
2.90935e-63
2.73756e-63
2.56718e-63
2.39982e-63
2.2368e-63
2.07922e-63
1.92792e-63
1.78357e-63
1.64663e-63
1.5174e-63
1.39605e-63
1.28264e-63
1.17713e-63
1.07938e-63
9.8922e-64
9.06406e-64
8.30672e-64
7.61723e-64
6.99254e-64
6.42952e-64
5.92509e-64
5.47622e-64
5.08006e-64
4.7339e-64
4.43525e-64
4.18188e-64
3.97179e-64
3.80327e-64
3.6749e-64
3.58553e-64
3.53434e-64
3.52078e-64
3.54462e-64
3.60591e-64
3.70498e-64
3.84246e-64
4.01922e-64
4.23639e-64
4.49534e-64
4.79763e-64
5.14499e-64
5.5393e-64
5.98255e-64
6.47677e-64
7.02398e-64
7.62613e-64
8.28501e-64
9.00218e-64
9.77887e-64
1.06158e-63
1.15133e-63
1.24707e-63
1.34866e-63
1.45587e-63
1.56834e-63
1.68558e-63
1.80694e-63
1.9316e-63
2.05855e-63
2.1866e-63
2.31433e-63
2.44009e-63
2.56201e-63
2.678e-63
2.78572e-63
2.88265e-63
2.96608e-63
3.03313e-63
3.08084e-63
3.10619e-63
4.97688e-63
4.93625e-63
4.85978e-63
4.75228e-63
4.6185e-63
4.46304e-63
4.29021e-63
4.10409e-63
3.90837e-63
3.70642e-63
3.50122e-63
3.29541e-63
3.09125e-63
2.89066e-63
2.69525e-63
2.5063e-63
2.32486e-63
2.1517e-63
1.98738e-63
1.83227e-63
1.68659e-63
1.55039e-63
1.42363e-63
1.30617e-63
1.19778e-63
1.09819e-63
1.00708e-63
9.24106e-64
8.48898e-64
7.81089e-64
7.20312e-64
6.6621e-64
6.1844e-64
5.76684e-64
5.40644e-64
5.10053e-64
4.84676e-64
4.64308e-64
4.48779e-64
4.37953e-64
4.31731e-64
4.30048e-64
4.32875e-64
4.40218e-64
4.52116e-64
4.68642e-64
4.899e-64
5.16024e-64
5.47173e-64
5.83534e-64
6.25311e-64
6.72729e-64
7.26019e-64
7.85424e-64
8.51181e-64
9.23521e-64
1.00266e-63
1.08877e-63
1.182e-63
1.28244e-63
1.39011e-63
1.50494e-63
1.62677e-63
1.7553e-63
1.89011e-63
2.0306e-63
2.176e-63
2.32532e-63
2.47737e-63
2.63071e-63
2.78363e-63
2.93418e-63
3.08012e-63
3.21893e-63
3.34784e-63
3.46383e-63
3.56364e-63
3.64386e-63
3.70094e-63
3.73127e-63
5.97526e-63
5.92664e-63
5.83512e-63
5.70647e-63
5.54637e-63
5.36029e-63
5.15342e-63
4.9306e-63
4.69628e-63
4.45448e-63
4.20876e-63
3.96228e-63
3.71774e-63
3.47744e-63
3.24331e-63
3.01689e-63
2.79942e-63
2.59184e-63
2.39481e-63
2.20879e-63
2.03403e-63
1.87061e-63
1.71848e-63
1.57747e-63
1.44731e-63
1.32769e-63
1.21822e-63
1.11849e-63
1.02807e-63
9.46518e-64
8.73402e-64
8.08295e-64
7.5079e-64
7.00506e-64
6.57091e-64
6.20227e-64
5.89632e-64
5.65063e-64
5.46316e-64
5.33231e-64
5.25688e-64
5.2361e-64
5.26961e-64
5.35748e-64
5.50017e-64
5.69854e-64
5.95381e-64
6.26758e-64
6.64174e-64
7.07848e-64
7.58025e-64
8.14969e-64
8.78956e-64
9.50271e-64
1.0292e-63
1.11601e-63
1.21095e-63
1.31425e-63
1.42606e-63
1.54649e-63
1.67556e-63
1.81319e-63
1.95917e-63
2.11317e-63
2.27465e-63
2.44291e-63
2.61702e-63
2.79581e-63
2.97784e-63
3.16139e-63
3.34442e-63
3.52459e-63
3.69923e-63
3.86532e-63
4.01955e-63
4.15831e-63
4.27772e-63
4.37367e-63
4.44195e-63
4.47822e-63
7.16898e-63
7.11081e-63
7.0013e-63
6.84736e-63
6.65576e-63
6.43307e-63
6.18548e-63
5.9188e-63
5.63832e-63
5.34886e-63
5.0547e-63
4.75959e-63
4.46677e-63
4.17901e-63
3.89859e-63
3.62738e-63
3.36685e-63
3.11812e-63
2.88201e-63
2.65905e-63
2.44954e-63
2.2536e-63
2.07115e-63
1.90199e-63
1.74583e-63
1.60227e-63
1.47087e-63
1.35113e-63
1.24254e-63
1.14457e-63
1.05672e-63
9.78467e-64
9.09333e-64
8.48864e-64
7.96639e-64
7.52279e-64
7.1545e-64
6.8586e-64
6.63268e-64
6.4748e-64
6.38355e-64
6.358e-64
6.39772e-64
6.50278e-64
6.67372e-64
6.91156e-64
7.21776e-64
7.59419e-64
8.04311e-64
8.56712e-64
9.16913e-64
9.85225e-64
1.06198e-63
1.14751e-63
1.24216e-63
1.34625e-63
1.46007e-63
1.58387e-63
1.71787e-63
1.86217e-63
2.0168e-63
2.18166e-63
2.3565e-63
2.54091e-63
2.73426e-63
2.9357e-63
3.14412e-63
3.35812e-63
3.57597e-63
3.79562e-63
4.01463e-63
4.2302e-63
4.43913e-63
4.63783e-63
4.82233e-63
4.98831e-63
5.13113e-63
5.2459e-63
5.32755e-63
5.37093e-63
8.59643e-63
8.52683e-63
8.39581e-63
8.21161e-63
7.98235e-63
7.71587e-63
7.41959e-63
7.10044e-63
6.76477e-63
6.41833e-63
6.06623e-63
5.71297e-63
5.36243e-63
5.01791e-63
4.68215e-63
4.35739e-63
4.04537e-63
3.74746e-63
3.46463e-63
3.19751e-63
2.94648e-63
2.71165e-63
2.49297e-63
2.29019e-63
2.10295e-63
1.93079e-63
1.77317e-63
1.62952e-63
1.49922e-63
1.38164e-63
1.27618e-63
1.18222e-63
1.09919e-63
1.02655e-63
9.63797e-64
9.10481e-64
8.66201e-64
8.3061e-64
8.0342e-64
7.84401e-64
7.73382e-64
7.70252e-64
7.74959e-64
7.87512e-64
8.07975e-64
8.36467e-64
8.73163e-64
9.18284e-64
9.72099e-64
1.03492e-63
1.10708e-63
1.18897e-63
1.28097e-63
1.38348e-63
1.4969e-63
1.62161e-63
1.75798e-63
1.90629e-63
2.06678e-63
2.2396e-63
2.42476e-63
2.62215e-63
2.83147e-63
3.05222e-63
3.28364e-63
3.52473e-63
3.77415e-63
4.03022e-63
4.29088e-63
4.55367e-63
4.81569e-63
5.07357e-63
5.3235e-63
5.56117e-63
5.78185e-63
5.98037e-63
6.15118e-63
6.28844e-63
6.38609e-63
6.43797e-63
1.03035e-62
1.02202e-62
1.00635e-62
9.8431e-63
9.56879e-63
9.24994e-63
8.89543e-63
8.51353e-63
8.11185e-63
7.69725e-63
7.27587e-63
6.85307e-63
6.43351e-63
6.02112e-63
5.61919e-63
5.23038e-63
4.85682e-63
4.5001e-63
4.1614e-63
3.84149e-63
3.54081e-63
3.25951e-63
2.99751e-63
2.75453e-63
2.53015e-63
2.3238e-63
2.13486e-63
1.96262e-63
1.80637e-63
1.66536e-63
1.53885e-63
1.42612e-63
1.32648e-63
1.2393e-63
1.16396e-63
1.09994e-63
1.04676e-63
1.00399e-63
9.71304e-64
9.48418e-64
9.3513e-64
9.31308e-64
9.36889e-64
9.51882e-64
9.76362e-64
1.01047e-63
1.05442e-63
1.10847e-63
1.17294e-63
1.24819e-63
1.33465e-63
1.43274e-63
1.54295e-63
1.66573e-63
1.80158e-63
1.95094e-63
2.11423e-63
2.29181e-63
2.48397e-63
2.69085e-63
2.9125e-63
3.14876e-63
3.39928e-63
3.66345e-63
3.94038e-63
4.22885e-63
4.52726e-63
4.83362e-63
5.14546e-63
5.45982e-63
5.77324e-63
6.0817e-63
6.38062e-63
6.66489e-63
6.92882e-63
7.16623e-63
7.37051e-63
7.53466e-63
7.65144e-63
7.71348e-63
1.23451e-62
1.22455e-62
1.2058e-62
1.17943e-62
1.14661e-62
1.10846e-62
1.06605e-62
1.02035e-62
9.72288e-63
9.22677e-63
8.72253e-63
8.21657e-63
7.71445e-63
7.2209e-63
6.73983e-63
6.27445e-63
5.82727e-63
5.40024e-63
4.99474e-63
4.61171e-63
4.25166e-63
3.9148e-63
3.60101e-63
3.30997e-63
3.04117e-63
2.79396e-63
2.56756e-63
2.36116e-63
2.17389e-63
2.00486e-63
1.85319e-63
1.71803e-63
1.59854e-63
1.49397e-63
1.40359e-63
1.32677e-63
1.26294e-63
1.2116e-63
1.17234e-63
1.14483e-63
1.12882e-63
1.12417e-63
1.13078e-63
1.14869e-63
1.17796e-63
1.21878e-63
1.27138e-63
1.33609e-63
1.41328e-63
1.5034e-63
1.60692e-63
1.72438e-63
1.85633e-63
2.00333e-63
2.16597e-63
2.34477e-63
2.54024e-63
2.7528e-63
2.98279e-63
3.23039e-63
3.49563e-63
3.77834e-63
4.0781e-63
4.39417e-63
4.72548e-63
5.07059e-63
5.42757e-63
5.79404e-63
6.16704e-63
6.54305e-63
6.91791e-63
7.28683e-63
7.64434e-63
7.9843e-63
8.29994e-63
8.58386e-63
8.82815e-63
9.02444e-63
9.16408e-63
9.23827e-63
1.4787e-62
1.46678e-62
1.44435e-62
1.4128e-62
1.37354e-62
1.3279e-62
1.27715e-62
1.22248e-62
1.16497e-62
1.10561e-62
1.04527e-62
9.84731e-63
9.24646e-63
8.65583e-63
8.08012e-63
7.52315e-63
6.98795e-63
6.47683e-63
5.99145e-63
5.53293e-63
5.1019e-63
4.69859e-63
4.32287e-63
3.97437e-63
3.65247e-63
3.35639e-63
3.08522e-63
2.83797e-63
2.61361e-63
2.41108e-63
2.22934e-63
2.06734e-63
1.92413e-63
1.79877e-63
1.69041e-63
1.59829e-63
1.52173e-63
1.46013e-63
1.413e-63
1.37996e-63
1.3607e-63
1.35504e-63
1.36289e-63
1.38426e-63
1.41926e-63
1.46809e-63
1.53103e-63
1.60847e-63
1.70086e-63
1.80872e-63
1.93263e-63
2.07322e-63
2.23115e-63
2.40711e-63
2.60175e-63
2.81574e-63
3.04966e-63
3.30402e-63
3.57921e-63
3.87547e-63
4.19282e-63
4.53106e-63
4.88966e-63
5.26776e-63
5.66409e-63
6.07689e-63
6.50388e-63
6.9422e-63
7.38832e-63
7.83803e-63
8.28635e-63
8.72755e-63
9.15509e-63
9.56164e-63
9.93909e-63
1.02786e-62
1.05707e-62
1.08055e-62
1.09724e-62
1.10611e-62
1.77077e-62
1.75651e-62
1.72967e-62
1.69193e-62
1.64496e-62
1.59036e-62
1.52964e-62
1.46423e-62
1.39543e-62
1.32441e-62
1.25222e-62
1.17978e-62
1.10788e-62
1.03721e-62
9.68319e-63
9.01668e-63
8.3762e-63
7.7645e-63
7.18359e-63
6.63479e-63
6.11887e-63
5.63609e-63
5.18633e-63
4.76911e-63
4.38371e-63
4.02919e-63
3.70448e-63
3.40839e-63
3.13968e-63
2.8971e-63
2.67939e-63
2.48532e-63
2.31373e-63
2.16351e-63
2.03366e-63
1.92324e-63
1.83145e-63
1.75758e-63
1.70105e-63
1.66138e-63
1.63823e-63
1.63137e-63
1.64068e-63
1.66619e-63
1.70802e-63
1.76641e-63
1.84171e-63
1.93436e-63
2.0449e-63
2.17396e-63
2.32224e-63
2.49047e-63
2.67945e-63
2.88999e-63
3.12289e-63
3.37893e-63
3.6588e-63
3.96312e-63
4.29235e-63
4.64676e-63
5.0264e-63
5.431e-63
5.85995e-63
6.3122e-63
6.78624e-63
7.27997e-63
7.79066e-63
8.31487e-63
8.8484e-63
9.38621e-63
9.92235e-63
1.045e-62
1.09612e-62
1.14474e-62
1.18987e-62
1.23047e-62
1.2654e-62
1.29347e-62
1.31344e-62
1.32405e-62
2.12011e-62
2.10306e-62
2.07095e-62
2.0258e-62
1.96961e-62
1.90428e-62
1.83165e-62
1.75339e-62
1.67108e-62
1.58611e-62
1.49974e-62
1.41307e-62
1.32705e-62
1.24249e-62
1.16006e-62
1.08031e-62
1.00367e-62
9.30469e-63
8.60951e-63
7.95275e-63
7.33529e-63
6.75749e-63
6.21916e-63
5.71976e-63
5.25842e-63
4.83402e-63
4.44527e-63
4.09077e-63
3.76904e-63
3.47856e-63
3.21784e-63
2.98542e-63
2.77989e-63
2.59995e-63
2.44438e-63
2.31208e-63
2.20209e-63
2.11354e-63
2.04576e-63
1.99817e-63
1.97035e-63
1.96204e-63
1.9731e-63
2.00355e-63
2.05353e-63
2.12334e-63
2.21339e-63
2.32422e-63
2.45645e-63
2.61085e-63
2.78824e-63
2.9895e-63
3.21559e-63
3.46747e-63
3.74609e-63
4.05238e-63
4.38718e-63
4.75121e-63
5.14503e-63
5.56896e-63
6.02305e-63
6.50698e-63
7.02002e-63
7.56093e-63
8.12787e-63
8.71834e-63
9.32908e-63
9.95598e-63
1.0594e-62
1.12372e-62
1.18783e-62
1.25092e-62
1.31206e-62
1.37019e-62
1.42416e-62
1.47271e-62
1.51448e-62
1.54804e-62
1.57191e-62
1.5846e-62
2.53798e-62
2.51758e-62
2.47917e-62
2.42516e-62
2.35793e-62
2.27978e-62
2.19289e-62
2.09927e-62
2.00079e-62
1.89914e-62
1.79581e-62
1.69212e-62
1.5892e-62
1.48803e-62
1.38941e-62
1.29398e-62
1.20228e-62
1.1147e-62
1.03151e-62
9.5292e-63
8.79032e-63
8.09885e-63
7.4546e-63
6.85691e-63
6.30474e-63
5.79677e-63
5.33144e-63
4.90709e-63
4.52193e-63
4.17417e-63
3.86202e-63
3.58373e-63
3.33762e-63
3.12213e-63
2.93581e-63
2.77734e-63
2.64556e-63
2.53947e-63
2.45822e-63
2.40114e-63
2.36774e-63
2.35768e-63
2.37082e-63
2.40716e-63
2.46689e-63
2.55035e-63
2.65803e-63
2.79056e-63
2.94872e-63
3.1334e-63
3.34557e-63
3.58632e-63
3.85676e-63
4.15805e-63
4.49132e-63
4.85768e-63
5.25814e-63
5.69355e-63
6.16457e-63
6.67161e-63
7.21469e-63
7.79346e-63
8.40703e-63
9.05391e-63
9.73191e-63
1.0438e-62
1.11684e-62
1.19181e-62
1.26811e-62
1.34501e-62
1.42168e-62
1.49712e-62
1.57023e-62
1.63974e-62
1.70428e-62
1.76232e-62
1.81227e-62
1.8524e-62
1.88094e-62
1.89611e-62
3.03782e-62
3.01341e-62
2.96746e-62
2.90285e-62
2.82243e-62
2.72894e-62
2.62499e-62
2.51299e-62
2.39518e-62
2.27357e-62
2.14995e-62
2.0259e-62
1.90277e-62
1.78173e-62
1.66374e-62
1.54957e-62
1.43985e-62
1.33506e-62
1.23553e-62
1.14149e-62
1.05308e-62
9.70334e-63
8.9324e-63
8.21715e-63
7.55635e-63
6.94842e-63
6.39151e-63
5.8836e-63
5.42259e-63
5.00633e-63
4.63266e-63
4.2995e-63
4.00486e-63
3.74685e-63
3.52375e-63
3.33398e-63
3.17615e-63
3.04906e-63
2.9517e-63
2.88327e-63
2.84318e-63
2.83103e-63
2.84663e-63
2.89001e-63
2.96137e-63
3.06113e-63
3.18987e-63
3.34836e-63
3.5375e-63
3.75836e-63
4.01212e-63
4.30006e-63
4.62351e-63
4.98385e-63
5.38245e-63
5.82062e-63
6.29956e-63
6.8203e-63
7.38362e-63
7.99e-63
8.63949e-63
9.33163e-63
1.00654e-62
1.0839e-62
1.16497e-62
1.24941e-62
1.33675e-62
1.4264e-62
1.51763e-62
1.60959e-62
1.70127e-62
1.79148e-62
1.87889e-62
1.96201e-62
2.03918e-62
2.10859e-62
2.16831e-62
2.21629e-62
2.25042e-62
2.26856e-62
3.63572e-62
3.60652e-62
3.55155e-62
3.47426e-62
3.37805e-62
3.26622e-62
3.14186e-62
3.00788e-62
2.86694e-62
2.72146e-62
2.57357e-62
2.42516e-62
2.27786e-62
2.13305e-62
1.99188e-62
1.85529e-62
1.72403e-62
1.59865e-62
1.47956e-62
1.36705e-62
1.26126e-62
1.16226e-62
1.07001e-62
9.84426e-63
9.05353e-63
8.32604e-63
7.65957e-63
7.05174e-63
6.50001e-63
6.0018e-63
5.55456e-63
5.15578e-63
4.80308e-63
4.49422e-63
4.22712e-63
3.9999e-63
3.81091e-63
3.6587e-63
3.54207e-63
3.46006e-63
3.41195e-63
3.39728e-63
3.41582e-63
3.4676e-63
3.55286e-63
3.6721e-63
3.82601e-63
4.0155e-63
4.24167e-63
4.50579e-63
4.80925e-63
5.15359e-63
5.54041e-63
5.97135e-63
6.44805e-63
6.97206e-63
7.54482e-63
8.16756e-63
8.84123e-63
9.56637e-63
1.03431e-62
1.11707e-62
1.20482e-62
1.29732e-62
1.39428e-62
1.49525e-62
1.59968e-62
1.70688e-62
1.81597e-62
1.92593e-62
2.03555e-62
2.14342e-62
2.24794e-62
2.34733e-62
2.4396e-62
2.52259e-62
2.59399e-62
2.65137e-62
2.69218e-62
2.71386e-62
4.35091e-62
4.31599e-62
4.25023e-62
4.15777e-62
4.04268e-62
3.90889e-62
3.76013e-62
3.59985e-62
3.43125e-62
3.25721e-62
3.08029e-62
2.90274e-62
2.72653e-62
2.55329e-62
2.3844e-62
2.22099e-62
2.06395e-62
1.91395e-62
1.77147e-62
1.63686e-62
1.51029e-62
1.39184e-62
1.28146e-62
1.17906e-62
1.08445e-62
9.97395e-63
9.17646e-63
8.4491e-63
7.78885e-63
7.19263e-63
6.65738e-63
6.18011e-63
5.75798e-63
5.38828e-63
5.06855e-63
4.79654e-63
4.57027e-63
4.388e-63
4.24831e-63
4.15004e-63
4.09233e-63
4.07464e-63
4.09668e-63
4.15848e-63
4.26035e-63
4.40285e-63
4.58684e-63
4.8134e-63
5.08383e-63
5.39964e-63
5.76252e-63
6.17429e-63
6.63686e-63
7.15219e-63
7.72223e-63
8.34886e-63
9.03379e-63
9.77848e-63
1.05841e-62
1.14512e-62
1.238e-62
1.33697e-62
1.44189e-62
1.55251e-62
1.66844e-62
1.78917e-62
1.91405e-62
2.04223e-62
2.17267e-62
2.30416e-62
2.43523e-62
2.56421e-62
2.68919e-62
2.80802e-62
2.91835e-62
3.01758e-62
3.10296e-62
3.17155e-62
3.22035e-62
3.24628e-62
5.20644e-62
5.16465e-62
5.08599e-62
4.97538e-62
4.83771e-62
4.67767e-62
4.4997e-62
4.30797e-62
4.10627e-62
3.89807e-62
3.68642e-62
3.47403e-62
3.26322e-62
3.05597e-62
2.85393e-62
2.65844e-62
2.47056e-62
2.2911e-62
2.12065e-62
1.95961e-62
1.80818e-62
1.66646e-62
1.5344e-62
1.41188e-62
1.29868e-62
1.19452e-62
1.0991e-62
1.01206e-62
9.33058e-63
8.61713e-63
7.97661e-63
7.40546e-63
6.90026e-63
6.45779e-63
6.07511e-63
5.74952e-63
5.47864e-63
5.26042e-63
5.09313e-63
4.97539e-63
4.90619e-63
4.88486e-63
4.91106e-63
4.98483e-63
5.10653e-63
5.27685e-63
5.49679e-63
5.76764e-63
6.09097e-63
6.46858e-63
6.90248e-63
7.39485e-63
7.94797e-63
8.56419e-63
9.24584e-63
9.99515e-63
1.08142e-62
1.17047e-62
1.26679e-62
1.37048e-62
1.48154e-62
1.59989e-62
1.72535e-62
1.85761e-62
1.99624e-62
2.14061e-62