/*--------------------------------*- C++ -*----------------------------------*\
  =========                 |
  \\      /  F ield         | OpenFOAM: The Open Source CFD Toolbox
   \\    /   O peration     | Website:  https://openfoam.org
    \\  /    A nd           | Version:  11
     \\/     M anipulation  |
\*---------------------------------------------------------------------------*/
FoamFile
{
    format      ascii;
    class       volScalarField;
    location    "633";
    object      p;
}
// * * * * * * * * * * * * * * * * * * * * * * * * * * * * * * * * * * * * * //

dimensions      [0 2 -2 0 0 0 0];

internalField   nonuniform List<scalar> 
427520
(
1.12249
1.07069
1.03641
1.01781
1.0059
0.997378
0.991185
0.986642
0.983237
0.980623
0.978572
0.976931
0.975593
0.974484
0.973552
0.97276
0.972079
0.971489
0.970974
0.970522
0.970124
0.969771
0.969458
0.969179
0.968931
0.968709
0.968512
0.968337
0.968181
0.968043
0.967921
0.967815
0.967723
0.967644
0.967578
0.967523
0.96748
0.967448
0.967427
0.967417
0.967417
0.967427
0.967448
0.96748
0.967523
0.967578
0.967644
0.967723
0.967815
0.967921
0.968043
0.968181
0.968337
0.968512
0.968709
0.968931
0.969179
0.969458
0.969771
0.970124
0.970522
0.970974
0.971489
0.972079
0.97276
0.973552
0.974484
0.975593
0.976931
0.978572
0.980623
0.983237
0.986642
0.991185
0.997378
1.0059
1.01781
1.03641
1.07069
1.12249
1.02417
1.01816
1.01116
1.00456
0.998709
0.993698
0.989527
0.986104
0.983299
0.980992
0.979084
0.977495
0.976159
0.975029
0.974064
0.973235
0.972517
0.971892
0.971344
0.970863
0.970437
0.97006
0.969726
0.969428
0.969163
0.968926
0.968716
0.968528
0.968362
0.968215
0.968085
0.967972
0.967873
0.967789
0.967718
0.96766
0.967615
0.967581
0.967558
0.967547
0.967547
0.967558
0.967581
0.967615
0.96766
0.967718
0.967789
0.967873
0.967972
0.968085
0.968215
0.968362
0.968528
0.968716
0.968926
0.969163
0.969428
0.969726
0.97006
0.970437
0.970863
0.971344
0.971892
0.972517
0.973235
0.974064
0.975029
0.976159
0.977495
0.979084
0.980992
0.983299
0.986104
0.989527
0.993698
0.998709
1.00456
1.01116
1.01816
1.02417
0.994212
0.995967
0.9963
0.994567
0.991987
0.98927
0.98668
0.984317
0.982213
0.980368
0.978762
0.977368
0.976158
0.975107
0.974191
0.97339
0.972687
0.972069
0.971523
0.971039
0.970609
0.970227
0.969886
0.969582
0.96931
0.969068
0.968851
0.968658
0.968486
0.968334
0.968201
0.968083
0.967982
0.967895
0.967821
0.967761
0.967714
0.967679
0.967655
0.967644
0.967644
0.967655
0.967679
0.967714
0.967761
0.967821
0.967895
0.967982
0.968083
0.968201
0.968334
0.968486
0.968658
0.968851
0.969068
0.96931
0.969582
0.969886
0.970227
0.970609
0.971039
0.971523
0.972069
0.972687
0.97339
0.974191
0.975107
0.976158
0.977368
0.978762
0.980368
0.982213
0.984317
0.98668
0.98927
0.991987
0.994567
0.9963
0.995967
0.994212
0.983373
0.985609
0.987037
0.986943
0.985999
0.984687
0.98323
0.981749
0.98032
0.978982
0.977754
0.97664
0.975638
0.97474
0.973937
0.973219
0.972578
0.972005
0.971493
0.971034
0.970623
0.970254
0.969923
0.969626
0.969359
0.96912
0.968906
0.968714
0.968544
0.968392
0.968258
0.968141
0.968039
0.967952
0.967878
0.967818
0.96777
0.967735
0.967711
0.9677
0.9677
0.967711
0.967735
0.96777
0.967818
0.967878
0.967952
0.968039
0.968141
0.968258
0.968392
0.968544
0.968714
0.968906
0.96912
0.969359
0.969626
0.969923
0.970254
0.970623
0.971034
0.971493
0.972005
0.972578
0.973219
0.973937
0.97474
0.975638
0.97664
0.977754
0.978982
0.98032
0.981749
0.98323
0.984687
0.985999
0.986943
0.987037
0.985609
0.983373
0.977424
0.979322
0.980803
0.981329
0.981212
0.980719
0.979999
0.979152
0.97825
0.977343
0.976461
0.975623
0.974839
0.974113
0.973445
0.972834
0.972277
0.971771
0.971311
0.970893
0.970515
0.970173
0.969863
0.969582
0.969329
0.969101
0.968895
0.968711
0.968546
0.968399
0.968269
0.968154
0.968055
0.967969
0.967897
0.967838
0.967791
0.967756
0.967733
0.967722
0.967722
0.967733
0.967756
0.967791
0.967838
0.967897
0.967969
0.968055
0.968154
0.968269
0.968399
0.968546
0.968711
0.968895
0.969101
0.969329
0.969582
0.969863
0.970173
0.970515
0.970893
0.971311
0.971771
0.972277
0.972834
0.973445
0.974113
0.974839
0.975623
0.976461
0.977343
0.97825
0.979152
0.979999
0.980719
0.981212
0.981329
0.980803
0.979322
0.977424
0.973912
0.97538
0.976659
0.977346
0.977583
0.977514
0.977227
0.976791
0.976261
0.97568
0.975077
0.974476
0.97389
0.973328
0.972796
0.972297
0.971832
0.971402
0.971004
0.970638
0.970302
0.969995
0.969714
0.969458
0.969225
0.969013
0.968821
0.968649
0.968493
0.968354
0.968231
0.968122
0.968028
0.967946
0.967877
0.96782
0.967775
0.967742
0.96772
0.967708
0.967708
0.96772
0.967742
0.967775
0.96782
0.967877
0.967946
0.968028
0.968122
0.968231
0.968354
0.968493
0.968649
0.968821
0.969013
0.969225
0.969458
0.969714
0.969995
0.970302
0.970638
0.971004
0.971402
0.971832
0.972297
0.972796
0.973328
0.97389
0.974476
0.975077
0.97568
0.976261
0.976791
0.977227
0.977514
0.977583
0.977346
0.976659
0.97538
0.973912
0.971639
0.972758
0.9738
0.974468
0.97483
0.974963
0.974918
0.974735
0.974454
0.974106
0.973715
0.973303
0.972882
0.972464
0.972056
0.971663
0.971289
0.970935
0.970603
0.970292
0.970004
0.969736
0.969489
0.969262
0.969053
0.968863
0.968689
0.968531
0.968389
0.968261
0.968147
0.968046
0.967958
0.967882
0.967817
0.967764
0.967722
0.967691
0.96767
0.967659
0.967659
0.96767
0.967691
0.967722
0.967764
0.967817
0.967882
0.967958
0.968046
0.968147
0.968261
0.968389
0.968531
0.968689
0.968863
0.969053
0.969262
0.969489
0.969736
0.970004
0.970292
0.970603
0.970935
0.971289
0.971663
0.972056
0.972464
0.972882
0.973303
0.973715
0.974106
0.974454
0.974735
0.974918
0.974963
0.97483
0.974468
0.9738
0.972758
0.971639
0.970028
0.970893
0.971732
0.972327
0.972714
0.972935
0.973017
0.972985
0.972864
0.972675
0.972438
0.972169
0.971879
0.97158
0.971278
0.970978
0.970687
0.970405
0.970136
0.96988
0.969639
0.969413
0.969202
0.969006
0.968825
0.968658
0.968504
0.968364
0.968237
0.968122
0.968019
0.967928
0.967848
0.967778
0.96772
0.967671
0.967632
0.967603
0.967584
0.967575
0.967575
0.967584
0.967603
0.967632
0.967671
0.96772
0.967778
0.967848
0.967928
0.968019
0.968122
0.968237
0.968364
0.968504
0.968658
0.968825
0.969006
0.969202
0.969413
0.969639
0.96988
0.970136
0.970405
0.970687
0.970978
0.971278
0.97158
0.971879
0.972169
0.972438
0.972675
0.972864
0.972985
0.973017
0.972935
0.972714
0.972327
0.971732
0.970893
0.970028
0.968815
0.969495
0.970175
0.970688
0.971058
0.971308
0.971452
0.971506
0.971484
0.971402
0.971272
0.971108
0.970919
0.970713
0.970497
0.970277
0.970057
0.96984
0.969628
0.969424
0.969229
0.969043
0.968868
0.968703
0.968549
0.968406
0.968274
0.968153
0.968042
0.967942
0.967851
0.967771
0.9677
0.967638
0.967586
0.967542
0.967508
0.967482
0.967465
0.967456
0.967456
0.967465
0.967482
0.967508
0.967542
0.967586
0.967638
0.9677
0.967771
0.967851
0.967942
0.968042
0.968153
0.968274
0.968406
0.968549
0.968703
0.968868
0.969043
0.969229
0.969424
0.969628
0.96984
0.970057
0.970277
0.970497
0.970713
0.970919
0.971108
0.971272
0.971402
0.971484
0.971506
0.971452
0.971308
0.971058
0.970688
0.970175
0.969495
0.968815
0.967859
0.968404
0.96896
0.969399
0.969736
0.969985
0.970156
0.970255
0.970293
0.970279
0.970223
0.970134
0.970019
0.969885
0.969738
0.969582
0.969422
0.96926
0.969099
0.96894
0.968787
0.968639
0.968497
0.968363
0.968236
0.968117
0.968007
0.967905
0.967811
0.967725
0.967647
0.967578
0.967517
0.967463
0.967418
0.96738
0.96735
0.967327
0.967312
0.967305
0.967305
0.967312
0.967327
0.96735
0.96738
0.967418
0.967463
0.967517
0.967578
0.967647
0.967725
0.967811
0.967905
0.968007
0.968117
0.968236
0.968363
0.968497
0.968639
0.968787
0.96894
0.969099
0.96926
0.969422
0.969582
0.969738
0.969885
0.970019
0.970134
0.970223
0.970279
0.970293
0.970255
0.970156
0.969985
0.969736
0.969399
0.96896
0.968404
0.967859
0.96708
0.967524
0.967984
0.968358
0.968658
0.968894
0.96907
0.969191
0.969263
0.969292
0.969285
0.969248
0.969187
0.969107
0.969013
0.968909
0.968797
0.968681
0.968562
0.968444
0.968327
0.968212
0.968102
0.967995
0.967894
0.967798
0.967709
0.967625
0.967547
0.967476
0.967412
0.967354
0.967302
0.967257
0.967219
0.967187
0.967161
0.967142
0.967129
0.967123
0.967123
0.967129
0.967142
0.967161
0.967187
0.967219
0.967257
0.967302
0.967354
0.967412
0.967476
0.967547
0.967625
0.967709
0.967798
0.967894
0.967995
0.968102
0.968212
0.968327
0.968444
0.968562
0.968681
0.968797
0.968909
0.969013
0.969107
0.969187
0.969248
0.969285
0.969292
0.969263
0.969191
0.96907
0.968894
0.968658
0.968358
0.967984
0.967524
0.96708
0.966427
0.966794
0.967177
0.967497
0.967762
0.967978
0.96815
0.968278
0.968368
0.968423
0.968447
0.968446
0.968424
0.968384
0.96833
0.968265
0.968191
0.968112
0.96803
0.967945
0.967859
0.967774
0.967691
0.96761
0.967532
0.967457
0.967386
0.96732
0.967258
0.967201
0.967149
0.967102
0.967061
0.967024
0.966992
0.966966
0.966945
0.966929
0.966919
0.966913
0.966913
0.966919
0.966929
0.966945
0.966966
0.966992
0.967024
0.967061
0.967102
0.967149
0.967201
0.967258
0.96732
0.967386
0.967457
0.967532
0.96761
0.967691
0.967774
0.967859
0.967945
0.96803
0.968112
0.968191
0.968265
0.96833
0.968384
0.968424
0.968446
0.968447
0.968423
0.968368
0.968278
0.96815
0.967978
0.967762
0.967497
0.967177
0.966794
0.966427
0.965867
0.966173
0.966496
0.96677
0.967002
0.967198
0.96736
0.967488
0.967585
0.967654
0.967698
0.967721
0.967725
0.967713
0.967689
0.967654
0.967611
0.967562
0.967508
0.96745
0.967391
0.967331
0.967271
0.967212
0.967155
0.967099
0.967046
0.966996
0.966949
0.966905
0.966864
0.966828
0.966795
0.966766
0.966741
0.966721
0.966704
0.966692
0.966683
0.966679
0.966679
0.966683
0.966692
0.966704
0.966721
0.966741
0.966766
0.966795
0.966828
0.966864
0.966905
0.966949
0.966996
0.967046
0.967099
0.967155
0.967212
0.967271
0.967331
0.967391
0.96745
0.967508
0.967562
0.967611
0.967654
0.967689
0.967713
0.967725
0.967721
0.967698
0.967654
0.967585
0.967488
0.96736
0.967198
0.967002
0.96677
0.966496
0.966173
0.965867
0.965377
0.965635
0.965909
0.966144
0.966347
0.966523
0.966672
0.966795
0.966894
0.96697
0.967025
0.967063
0.967085
0.967094
0.967091
0.967079
0.967059
0.967032
0.967001
0.966966
0.966929
0.96689
0.96685
0.96681
0.96677
0.966731
0.966693
0.966657
0.966623
0.966591
0.966561
0.966534
0.96651
0.966488
0.96647
0.966454
0.966442
0.966432
0.966426
0.966423
0.966423
0.966426
0.966432
0.966442
0.966454
0.96647
0.966488
0.96651
0.966534
0.966561
0.966591
0.966623
0.966657
0.966693
0.966731
0.96677
0.96681
0.96685
0.96689
0.966929
0.966966
0.967001
0.967032
0.967059
0.967079
0.967091
0.967094
0.967085
0.967063
0.967025
0.96697
0.966894
0.966795
0.966672
0.966523
0.966347
0.966144
0.965909
0.965635
0.965377
0.96494
0.965159
0.965393
0.965596
0.965774
0.965931
0.966067
0.966182
0.966278
0.966357
0.966418
0.966465
0.966499
0.966521
0.966534
0.966538
0.966535
0.966526
0.966513
0.966496
0.966476
0.966454
0.96643
0.966406
0.966381
0.966356
0.966332
0.966308
0.966285
0.966264
0.966244
0.966225
0.966209
0.966194
0.966181
0.96617
0.966161
0.966155
0.96615
0.966148
0.966148
0.96615
0.966155
0.966161
0.96617
0.966181
0.966194
0.966209
0.966225
0.966244
0.966264
0.966285
0.966308
0.966332
0.966356
0.966381
0.966406
0.96643
0.966454
0.966476
0.966496
0.966513
0.966526
0.966535
0.966538
0.966534
0.966521
0.966499
0.966465
0.966418
0.966357
0.966278
0.966182
0.966067
0.965931
0.965774
0.965596
0.965393
0.965159
0.96494
0.964545
0.964732
0.964932
0.965108
0.965264
0.965404
0.965527
0.965634
0.965726
0.965803
0.965866
0.965918
0.965959
0.965991
0.966014
0.96603
0.966039
0.966044
0.966044
0.966041
0.966035
0.966026
0.966016
0.966004
0.965992
0.965979
0.965966
0.965953
0.96594
0.965927
0.965916
0.965905
0.965895
0.965886
0.965878
0.965871
0.965866
0.965862
0.965859
0.965858
0.965858
0.965859
0.965862
0.965866
0.965871
0.965878
0.965886
0.965895
0.965905
0.965916
0.965927
0.96594
0.965953
0.965966
0.965979
0.965992
0.966004
0.966016
0.966026
0.966035
0.966041
0.966044
0.966044
0.966039
0.96603
0.966014
0.965991
0.965959
0.965918
0.965866
0.965803
0.965726
0.965634
0.965527
0.965404
0.965264
0.965108
0.964932
0.964732
0.964545
0.964183
0.964343
0.964515
0.964668
0.964805
0.964929
0.96504
0.965138
0.965224
0.965298
0.965362
0.965415
0.96546
0.965497
0.965528
0.965552
0.96557
0.965585
0.965595
0.965602
0.965606
0.965609
0.965609
0.965608
0.965605
0.965602
0.965598
0.965594
0.965589
0.965585
0.96558
0.965576
0.965571
0.965568
0.965564
0.965561
0.965559
0.965557
0.965556
0.965555
0.965555
0.965556
0.965557
0.965559
0.965561
0.965564
0.965568
0.965571
0.965576
0.96558
0.965585
0.965589
0.965594
0.965598
0.965602
0.965605
0.965608
0.965609
0.965609
0.965606
0.965602
0.965595
0.965585
0.96557
0.965552
0.965528
0.965497
0.96546
0.965415
0.965362
0.965298
0.965224
0.965138
0.96504
0.964929
0.964805
0.964668
0.964515
0.964343
0.964183
0.963846
0.963984
0.964133
0.964266
0.964387
0.964496
0.964596
0.964686
0.964765
0.964835
0.964897
0.964951
0.964997
0.965037
0.965072
0.965101
0.965126
0.965147
0.965165
0.96518
0.965192
0.965202
0.965211
0.965218
0.965224
0.965228
0.965232
0.965235
0.965237
0.965239
0.96524
0.965241
0.965242
0.965242
0.965242
0.965243
0.965243
0.965243
0.965243
0.965243
0.965243
0.965243
0.965243
0.965243
0.965243
0.965242
0.965242
0.965242
0.965241
0.96524
0.965239
0.965237
0.965235
0.965232
0.965228
0.965224
0.965218
0.965211
0.965202
0.965192
0.96518
0.965165
0.965147
0.965126
0.965101
0.965072
0.965037
0.964997
0.964951
0.964897
0.964835
0.964765
0.964686
0.964596
0.964496
0.964387
0.964266
0.964133
0.963984
0.963846
0.96353
0.963649
0.963779
0.963895
0.964001
0.964098
0.964187
0.964268
0.964341
0.964407
0.964466
0.964518
0.964565
0.964606
0.964643
0.964676
0.964705
0.96473
0.964753
0.964774
0.964792
0.964808
0.964823
0.964836
0.964848
0.964859
0.964868
0.964877
0.964885
0.964891
0.964898
0.964903
0.964908
0.964912
0.964915
0.964918
0.96492
0.964922
0.964923
0.964923
0.964923
0.964923
0.964922
0.96492
0.964918
0.964915
0.964912
0.964908
0.964903
0.964898
0.964891
0.964885
0.964877
0.964868
0.964859
0.964848
0.964836
0.964823
0.964808
0.964792
0.964774
0.964753
0.96473
0.964705
0.964676
0.964643
0.964606
0.964565
0.964518
0.964466
0.964407
0.964341
0.964268
0.964187
0.964098
0.964001
0.963895
0.963779
0.963649
0.96353
0.96323
0.963334
0.963446
0.963548
0.963641
0.963727
0.963807
0.96388
0.963947
0.964008
0.964063
0.964114
0.964159
0.964201
0.964238
0.964272
0.964304
0.964332
0.964359
0.964383
0.964405
0.964426
0.964445
0.964463
0.96448
0.964495
0.964509
0.964522
0.964534
0.964545
0.964555
0.964564
0.964572
0.964578
0.964584
0.964589
0.964593
0.964596
0.964598
0.964599
0.964599
0.964598
0.964596
0.964593
0.964589
0.964584
0.964578
0.964572
0.964564
0.964555
0.964545
0.964534
0.964522
0.964509
0.964495
0.96448
0.964463
0.964445
0.964426
0.964405
0.964383
0.964359
0.964332
0.964304
0.964272
0.964238
0.964201
0.964159
0.964114
0.964063
0.964008
0.963947
0.96388
0.963807
0.963727
0.963641
0.963548
0.963446
0.963334
0.96323
0.962944
0.963034
0.963132
0.963221
0.963303
0.963379
0.96345
0.963516
0.963577
0.963633
0.963685
0.963733
0.963776
0.963817
0.963854
0.963889
0.963921
0.963952
0.96398
0.964007
0.964032
0.964055
0.964078
0.964099
0.964119
0.964137
0.964155
0.964171
0.964186
0.9642
0.964213
0.964225
0.964235
0.964244
0.964252
0.964259
0.964264
0.964268
0.964271
0.964272
0.964272
0.964271
0.964268
0.964264
0.964259
0.964252
0.964244
0.964235
0.964225
0.964213
0.9642
0.964186
0.964171
0.964155
0.964137
0.964119
0.964099
0.964078
0.964055
0.964032
0.964007
0.96398
0.963952
0.963921
0.963889
0.963854
0.963817
0.963776
0.963733
0.963685
0.963633
0.963577
0.963516
0.96345
0.963379
0.963303
0.963221
0.963132
0.963034
0.962944
0.962669
0.962747
0.962832
0.96291
0.962982
0.96305
0.963113
0.963173
0.963228
0.963279
0.963327
0.963372
0.963413
0.963452
0.963489
0.963523
0.963556
0.963587
0.963616
0.963644
0.963671
0.963696
0.963721
0.963744
0.963766
0.963787
0.963807
0.963826
0.963843
0.963859
0.963874
0.963888
0.9639
0.963911
0.96392
0.963928
0.963934
0.963939
0.963942
0.963944
0.963944
0.963942
0.963939
0.963934
0.963928
0.96392
0.963911
0.9639
0.963888
0.963874
0.963859
0.963843
0.963826
0.963807
0.963787
0.963766
0.963744
0.963721
0.963696
0.963671
0.963644
0.963616
0.963587
0.963556
0.963523
0.963489
0.963452
0.963413
0.963372
0.963327
0.963279
0.963228
0.963173
0.963113
0.96305
0.962982
0.96291
0.962832
0.962747
0.962669
0.962402
0.962469
0.962544
0.962612
0.962676
0.962736
0.962793
0.962846
0.962896
0.962943
0.962987
0.963028
0.963067
0.963104
0.963139
0.963173
0.963205
0.963236
0.963265
0.963294
0.963321
0.963348
0.963373
0.963398
0.963421
0.963444
0.963465
0.963485
0.963504
0.963522
0.963539
0.963553
0.963567
0.963579
0.963589
0.963598
0.963605
0.96361
0.963614
0.963616
0.963616
0.963614
0.96361
0.963605
0.963598
0.963589
0.963579
0.963567
0.963553
0.963539
0.963522
0.963504
0.963485
0.963465
0.963444
0.963421
0.963398
0.963373
0.963348
0.963321
0.963294
0.963265
0.963236
0.963205
0.963173
0.963139
0.963104
0.963067
0.963028
0.962987
0.962943
0.962896
0.962846
0.962793
0.962736
0.962676
0.962612
0.962544
0.962469
0.962402
0.962141
0.962201
0.962266
0.962326
0.962382
0.962435
0.962485
0.962533
0.962578
0.962621
0.962661
0.962699
0.962736
0.962771
0.962804
0.962836
0.962867
0.962897
0.962926
0.962955
0.962982
0.963009
0.963035
0.96306
0.963084
0.963108
0.96313
0.963151
0.963171
0.96319
0.963207
0.963223
0.963237
0.96325
0.963261
0.96327
0.963278
0.963283
0.963287
0.963289
0.963289
0.963287
0.963283
0.963278
0.96327
0.963261
0.96325
0.963237
0.963223
0.963207
0.96319
0.963171
0.963151
0.96313
0.963108
0.963084
0.96306
0.963035
0.963009
0.962982
0.962955
0.962926
0.962897
0.962867
0.962836
0.962804
0.962771
0.962736
0.962699
0.962661
0.962621
0.962578
0.962533
0.962485
0.962435
0.962382
0.962326
0.962266
0.962201
0.962141
0.961887
0.961938
0.961995
0.962048
0.962097
0.962144
0.962189
0.962232
0.962272
0.962311
0.962348
0.962383
0.962417
0.962449
0.962481
0.962511
0.962541
0.96257
0.962599
0.962626
0.962653
0.96268
0.962706
0.962731
0.962755
0.962779
0.962801
0.962823
0.962843
0.962862
0.96288
0.962896
0.962911
0.962924
0.962935
0.962945
0.962953
0.962959
0.962963
0.962965
0.962965
0.962963
0.962959
0.962953
0.962945
0.962935
0.962924
0.962911
0.962896
0.96288
0.962862
0.962843
0.962823
0.962801
0.962779
0.962755
0.962731
0.962706
0.96268
0.962653
0.962626
0.962599
0.96257
0.962541
0.962511
0.962481
0.962449
0.962417
0.962383
0.962348
0.962311
0.962272
0.962232
0.962189
0.962144
0.962097
0.962048
0.961995
0.961938
0.961887
0.961636
0.961681
0.961731
0.961777
0.961821
0.961862
0.961902
0.96194
0.961977
0.962012
0.962045
0.962077
0.962109
0.962139
0.962168
0.962197
0.962225
0.962253
0.96228
0.962307
0.962333
0.962359
0.962384
0.962409
0.962433
0.962457
0.962479
0.9625
0.962521
0.96254
0.962558
0.962574
0.962589
0.962602
0.962614
0.962623
0.962631
0.962637
0.962641
0.962643
0.962643
0.962641
0.962637
0.962631
0.962623
0.962614
0.962602
0.962589
0.962574
0.962558
0.96254
0.962521
0.9625
0.962479
0.962457
0.962433
0.962409
0.962384
0.962359
0.962333
0.962307
0.96228
0.962253
0.962225
0.962197
0.962168
0.962139
0.962109
0.962077
0.962045
0.962012
0.961977
0.96194
0.961902
0.961862
0.961821
0.961777
0.961731
0.961681
0.961636
0.961389
0.961429
0.961472
0.961513
0.961551
0.961588
0.961623
0.961657
0.96169
0.961721
0.961752
0.961781
0.96181
0.961838
0.961865
0.961892
0.961919
0.961945
0.961971
0.961996
0.962022
0.962046
0.962071
0.962095
0.962118
0.962141
0.962163
0.962184
0.962204
0.962223
0.962241
0.962257
0.962271
0.962285
0.962296
0.962306
0.962313
0.962319
0.962323
0.962325
0.962325
0.962323
0.962319
0.962313
0.962306
0.962296
0.962285
0.962271
0.962257
0.962241
0.962223
0.962204
0.962184
0.962163
0.962141
0.962118
0.962095
0.962071
0.962046
0.962022
0.961996
0.961971
0.961945
0.961919
0.961892
0.961865
0.961838
0.96181
0.961781
0.961752
0.961721
0.96169
0.961657
0.961623
0.961588
0.961551
0.961513
0.961472
0.961429
0.961389
0.961145
0.961179
0.961217
0.961253
0.961286
0.961319
0.96135
0.961381
0.96141
0.961438
0.961466
0.961493
0.961519
0.961545
0.96157
0.961595
0.96162
0.961644
0.961669
0.961693
0.961717
0.961741
0.961764
0.961787
0.96181
0.961832
0.961853
0.961873
0.961893
0.961911
0.961928
0.961944
0.961959
0.961971
0.961983
0.961992
0.962
0.962005
0.962009
0.962011
0.962011
0.962009
0.962005
0.962
0.961992
0.961983
0.961971
0.961959
0.961944
0.961928
0.961911
0.961893
0.961873
0.961853
0.961832
0.96181
0.961787
0.961764
0.961741
0.961717
0.961693
0.961669
0.961644
0.96162
0.961595
0.96157
0.961545
0.961519
0.961493
0.961466
0.961438
0.96141
0.961381
0.96135
0.961319
0.961286
0.961253
0.961217
0.961179
0.961145
0.960903
0.960932
0.960966
0.960997
0.961026
0.961055
0.961083
0.96111
0.961136
0.961162
0.961186
0.961211
0.961235
0.961258
0.961282
0.961305
0.961328
0.961351
0.961374
0.961396
0.961419
0.961442
0.961464
0.961486
0.961507
0.961528
0.961549
0.961568
0.961587
0.961604
0.961621
0.961636
0.96165
0.961663
0.961673
0.961683
0.96169
0.961696
0.961699
0.961701
0.961701
0.961699
0.961696
0.96169
0.961683
0.961673
0.961663
0.96165
0.961636
0.961621
0.961604
0.961587
0.961568
0.961549
0.961528
0.961507
0.961486
0.961464
0.961442
0.961419
0.961396
0.961374
0.961351
0.961328
0.961305
0.961282
0.961258
0.961235
0.961211
0.961186
0.961162
0.961136
0.96111
0.961083
0.961055
0.961026
0.960997
0.960966
0.960932
0.960903
0.960662
0.960688
0.960717
0.960744
0.96077
0.960795
0.96082
0.960844
0.960867
0.96089
0.960913
0.960935
0.960956
0.960978
0.960999
0.961021
0.961042
0.961063
0.961085
0.961106
0.961127
0.961148
0.961169
0.96119
0.96121
0.96123
0.961249
0.961268
0.961286
0.961303
0.961319
0.961333
0.961346
0.961358
0.961369
0.961378
0.961385
0.96139
0.961394
0.961396
0.961396
0.961394
0.96139
0.961385
0.961378
0.961369
0.961358
0.961346
0.961333
0.961319
0.961303
0.961286
0.961268
0.961249
0.96123
0.96121
0.96119
0.961169
0.961148
0.961127
0.961106
0.961085
0.961063
0.961042
0.961021
0.960999
0.960978
0.960956
0.960935
0.960913
0.96089
0.960867
0.960844
0.96082
0.960795
0.96077
0.960744
0.960717
0.960688
0.960662
0.960422
0.960444
0.96047
0.960493
0.960516
0.960539
0.96056
0.960582
0.960603
0.960623
0.960643
0.960663
0.960683
0.960703
0.960722
0.960742
0.960762
0.960781
0.960801
0.960821
0.960841
0.96086
0.96088
0.960899
0.960918
0.960937
0.960955
0.960973
0.96099
0.961006
0.961021
0.961035
0.961047
0.961058
0.961068
0.961077
0.961083
0.961089
0.961092
0.961094
0.961094
0.961092
0.961089
0.961083
0.961077
0.961068
0.961058
0.961047
0.961035
0.961021
0.961006
0.96099
0.960973
0.960955
0.960937
0.960918
0.960899
0.96088
0.96086
0.960841
0.960821
0.960801
0.960781
0.960762
0.960742
0.960722
0.960703
0.960683
0.960663
0.960643
0.960623
0.960603
0.960582
0.96056
0.960539
0.960516
0.960493
0.96047
0.960444
0.960422
0.960183
0.960202
0.960224
0.960245
0.960265
0.960285
0.960304
0.960323
0.960342
0.96036
0.960378
0.960396
0.960414
0.960432
0.96045
0.960468
0.960486
0.960504
0.960522
0.96054
0.960559
0.960577
0.960595
0.960613
0.960631
0.960649
0.960666
0.960682
0.960698
0.960713
0.960727
0.96074
0.960752
0.960763
0.960772
0.96078
0.960786
0.960791
0.960795
0.960796
0.960796
0.960795
0.960791
0.960786
0.96078
0.960772
0.960763
0.960752
0.96074
0.960727
0.960713
0.960698
0.960682
0.960666
0.960649
0.960631
0.960613
0.960595
0.960577
0.960559
0.96054
0.960522
0.960504
0.960486
0.960468
0.96045
0.960432
0.960414
0.960396
0.960378
0.96036
0.960342
0.960323
0.960304
0.960285
0.960265
0.960245
0.960224
0.960202
0.960183
0.959944
0.959961
0.95998
0.959998
0.960016
0.960033
0.96005
0.960067
0.960083
0.9601
0.960116
0.960132
0.960148
0.960165
0.960181
0.960197
0.960214
0.96023
0.960247
0.960264
0.960281
0.960298
0.960315
0.960332
0.960348
0.960365
0.96038
0.960396
0.960411
0.960425
0.960438
0.96045
0.960461
0.960471
0.96048
0.960487
0.960493
0.960498
0.960501
0.960502
0.960502
0.960501
0.960498
0.960493
0.960487
0.96048
0.960471
0.960461
0.96045
0.960438
0.960425
0.960411
0.960396
0.96038
0.960365
0.960348
0.960332
0.960315
0.960298
0.960281
0.960264
0.960247
0.96023
0.960214
0.960197
0.960181
0.960165
0.960148
0.960132
0.960116
0.9601
0.960083
0.960067
0.96005
0.960033
0.960016
0.959998
0.95998
0.959961
0.959944
0.959705
0.95972
0.959737
0.959753
0.959768
0.959783
0.959798
0.959813
0.959828
0.959842
0.959857
0.959871
0.959886
0.959901
0.959915
0.95993
0.959945
0.95996
0.959976
0.959991
0.960007
0.960023
0.960038
0.960054
0.960069
0.960084
0.960099
0.960113
0.960127
0.96014
0.960152
0.960164
0.960174
0.960183
0.960191
0.960198
0.960204
0.960208
0.960211
0.960213
0.960213
0.960211
0.960208
0.960204
0.960198
0.960191
0.960183
0.960174
0.960164
0.960152
0.96014
0.960127
0.960113
0.960099
0.960084
0.960069
0.960054
0.960038
0.960023
0.960007
0.959991
0.959976
0.95996
0.959945
0.95993
0.959915
0.959901
0.959886
0.959871
0.959857
0.959842
0.959828
0.959813
0.959798
0.959783
0.959768
0.959753
0.959737
0.95972
0.959705
0.959467
0.95948
0.959494
0.959508
0.959521
0.959535
0.959548
0.959561
0.959574
0.959587
0.9596
0.959613
0.959626
0.959639
0.959653
0.959666
0.95968
0.959694
0.959708
0.959722
0.959736
0.959751
0.959765
0.959779
0.959793
0.959807
0.959821
0.959834
0.959847
0.959859
0.95987
0.959881
0.95989
0.959899
0.959907
0.959913
0.959918
0.959922
0.959925
0.959926
0.959926
0.959925
0.959922
0.959918
0.959913
0.959907
0.959899
0.95989
0.959881
0.95987
0.959859
0.959847
0.959834
0.959821
0.959807
0.959793
0.959779
0.959765
0.959751
0.959736
0.959722
0.959708
0.959694
0.95968
0.959666
0.959653
0.959639
0.959626
0.959613
0.9596
0.959587
0.959574
0.959561
0.959548
0.959535
0.959521
0.959508
0.959494
0.95948
0.959467
0.959228
0.959239
0.959252
0.959264
0.959275
0.959287
0.959299
0.95931
0.959322
0.959333
0.959345
0.959357
0.959368
0.95938
0.959392
0.959405
0.959417
0.95943
0.959442
0.959455
0.959468
0.959482
0.959495
0.959508
0.959521
0.959534
0.959546
0.959558
0.95957
0.959581
0.959592
0.959601
0.95961
0.959618
0.959625
0.959631
0.959636
0.95964
0.959642
0.959643
0.959643
0.959642
0.95964
0.959636
0.959631
0.959625
0.959618
0.95961
0.959601
0.959592
0.959581
0.95957
0.959558
0.959546
0.959534
0.959521
0.959508
0.959495
0.959482
0.959468
0.959455
0.959442
0.95943
0.959417
0.959405
0.959392
0.95938
0.959368
0.959357
0.959345
0.959333
0.959322
0.95931
0.959299
0.959287
0.959275
0.959264
0.959252
0.959239
0.959228
0.958989
0.958999
0.95901
0.95902
0.95903
0.95904
0.959051
0.959061
0.959071
0.959081
0.959092
0.959102
0.959112
0.959123
0.959134
0.959145
0.959156
0.959168
0.95918
0.959191
0.959203
0.959215
0.959227
0.959239
0.959251
0.959263
0.959274
0.959286
0.959296
0.959306
0.959316
0.959325
0.959333
0.959341
0.959347
0.959352
0.959357
0.95936
0.959363
0.959364
0.959364
0.959363
0.95936
0.959357
0.959352
0.959347
0.959341
0.959333
0.959325
0.959316
0.959306
0.959296
0.959286
0.959274
0.959263
0.959251
0.959239
0.959227
0.959215
0.959203
0.959191
0.95918
0.959168
0.959156
0.959145
0.959134
0.959123
0.959112
0.959102
0.959092
0.959081
0.959071
0.959061
0.959051
0.95904
0.95903
0.95902
0.95901
0.958999
0.958989
0.95875
0.958758
0.958768
0.958777
0.958785
0.958794
0.958803
0.958812
0.958821
0.95883
0.958839
0.958849
0.958858
0.958868
0.958878
0.958888
0.958898
0.958908
0.958919
0.958929
0.95894
0.958951
0.958962
0.958973
0.958984
0.958995
0.959005
0.959015
0.959025
0.959035
0.959043
0.959052
0.959059
0.959066
0.959072
0.959077
0.959081
0.959084
0.959086
0.959087
0.959087
0.959086
0.959084
0.959081
0.959077
0.959072
0.959066
0.959059
0.959052
0.959043
0.959035
0.959025
0.959015
0.959005
0.958995
0.958984
0.958973
0.958962
0.958951
0.95894
0.958929
0.958919
0.958908
0.958898
0.958888
0.958878
0.958868
0.958858
0.958849
0.958839
0.95883
0.958821
0.958812
0.958803
0.958794
0.958785
0.958777
0.958768
0.958758
0.95875
0.958511
0.958517
0.958525
0.958533
0.958541
0.958549
0.958556
0.958564
0.958572
0.95858
0.958588
0.958597
0.958605
0.958614
0.958623
0.958632
0.958641
0.95865
0.95866
0.958669
0.958679
0.958689
0.958699
0.958709
0.958719
0.958729
0.958738
0.958748
0.958757
0.958765
0.958773
0.958781
0.958787
0.958794
0.958799
0.958804
0.958807
0.95881
0.958812
0.958813
0.958813
0.958812
0.95881
0.958807
0.958804
0.958799
0.958794
0.958787
0.958781
0.958773
0.958765
0.958757
0.958748
0.958738
0.958729
0.958719
0.958709
0.958699
0.958689
0.958679
0.958669
0.95866
0.95865
0.958641
0.958632
0.958623
0.958614
0.958605
0.958597
0.958588
0.95858
0.958572
0.958564
0.958556
0.958549
0.958541
0.958533
0.958525
0.958517
0.958511
0.95827
0.958276
0.958283
0.95829
0.958297
0.958303
0.95831
0.958317
0.958324
0.958331
0.958338
0.958346
0.958353
0.958361
0.958369
0.958377
0.958385
0.958394
0.958402
0.958411
0.95842
0.958429
0.958438
0.958447
0.958456
0.958465
0.958473
0.958482
0.95849
0.958498
0.958505
0.958512
0.958518
0.958524
0.958529
0.958533
0.958536
0.958539
0.958541
0.958541
0.958541
0.958541
0.958539
0.958536
0.958533
0.958529
0.958524
0.958518
0.958512
0.958505
0.958498
0.95849
0.958482
0.958473
0.958465
0.958456
0.958447
0.958438
0.958429
0.95842
0.958411
0.958402
0.958394
0.958385
0.958377
0.958369
0.958361
0.958353
0.958346
0.958338
0.958331
0.958324
0.958317
0.95831
0.958303
0.958297
0.95829
0.958283
0.958276
0.95827
0.95803
0.958035
0.958041
0.958047
0.958052
0.958058
0.958064
0.95807
0.958076
0.958083
0.958089
0.958096
0.958102
0.958109
0.958116
0.958123
0.958131
0.958138
0.958146
0.958154
0.958162
0.95817
0.958178
0.958187
0.958195
0.958203
0.958211
0.958218
0.958226
0.958233
0.958239
0.958246
0.958251
0.958256
0.958261
0.958265
0.958268
0.95827
0.958272
0.958272
0.958272
0.958272
0.95827
0.958268
0.958265
0.958261
0.958256
0.958251
0.958246
0.958239
0.958233
0.958226
0.958218
0.958211
0.958203
0.958195
0.958187
0.958178
0.95817
0.958162
0.958154
0.958146
0.958138
0.958131
0.958123
0.958116
0.958109
0.958102
0.958096
0.958089
0.958083
0.958076
0.95807
0.958064
0.958058
0.958052
0.958047
0.958041
0.958035
0.95803
0.957789
0.957793
0.957798
0.957803
0.957808
0.957813
0.957818
0.957824
0.957829
0.957835
0.95784
0.957846
0.957852
0.957858
0.957864
0.957871
0.957877
0.957884
0.957891