/*--------------------------------*- C++ -*----------------------------------*\
  =========                 |
  \\      /  F ield         | OpenFOAM: The Open Source CFD Toolbox
   \\    /   O peration     | Website:  https://openfoam.org
    \\  /    A nd           | Version:  11
     \\/     M anipulation  |
\*---------------------------------------------------------------------------*/
FoamFile
{
    format      ascii;
    class       volScalarField;
    location    "622";
    object      p;
}
// * * * * * * * * * * * * * * * * * * * * * * * * * * * * * * * * * * * * * //

dimensions      [0 2 -2 0 0 0 0];

internalField   nonuniform List<scalar> 
427520
(
0.303539
0.298512
0.295179
0.293356
0.292182
0.291335
0.290714
0.290253
0.289904
0.289633
0.289418
0.289244
0.289101
0.288981
0.28888
0.288792
0.288716
0.288649
0.288591
0.288538
0.288492
0.28845
0.288412
0.288379
0.288348
0.288321
0.288296
0.288274
0.288254
0.288237
0.288221
0.288207
0.288195
0.288185
0.288176
0.288168
0.288163
0.288158
0.288156
0.288154
0.288154
0.288156
0.288158
0.288163
0.288168
0.288176
0.288185
0.288195
0.288207
0.288221
0.288237
0.288254
0.288274
0.288296
0.288321
0.288348
0.288379
0.288412
0.28845
0.288492
0.288538
0.288591
0.288649
0.288716
0.288792
0.28888
0.288981
0.289101
0.289244
0.289418
0.289633
0.289904
0.290253
0.290714
0.291335
0.292182
0.293356
0.295179
0.298512
0.303539
0.294008
0.293427
0.292717
0.292043
0.291452
0.290948
0.290528
0.290182
0.289897
0.289661
0.289465
0.289299
0.289159
0.289039
0.288936
0.288846
0.288767
0.288698
0.288637
0.288582
0.288534
0.28849
0.288451
0.288416
0.288384
0.288356
0.28833
0.288307
0.288286
0.288268
0.288251
0.288237
0.288225
0.288214
0.288205
0.288197
0.288191
0.288187
0.288184
0.288182
0.288182
0.288184
0.288187
0.288191
0.288197
0.288205
0.288214
0.288225
0.288237
0.288251
0.288268
0.288286
0.288307
0.28833
0.288356
0.288384
0.288416
0.288451
0.28849
0.288534
0.288582
0.288637
0.288698
0.288767
0.288846
0.288936
0.289039
0.289159
0.289299
0.289465
0.289661
0.289897
0.290182
0.290528
0.290948
0.291452
0.292043
0.292717
0.293427
0.294008
0.291076
0.291242
0.291262
0.291076
0.290808
0.290528
0.290261
0.290018
0.289801
0.28961
0.289443
0.289297
0.289169
0.289057
0.288959
0.288872
0.288796
0.288728
0.288667
0.288612
0.288564
0.28852
0.28848
0.288445
0.288412
0.288384
0.288357
0.288334
0.288313
0.288294
0.288278
0.288263
0.28825
0.288239
0.28823
0.288222
0.288216
0.288212
0.288209
0.288207
0.288207
0.288209
0.288212
0.288216
0.288222
0.28823
0.288239
0.28825
0.288263
0.288278
0.288294
0.288313
0.288334
0.288357
0.288384
0.288412
0.288445
0.28848
0.28852
0.288564
0.288612
0.288667
0.288728
0.288796
0.288872
0.288959
0.289057
0.289169
0.289297
0.289443
0.28961
0.289801
0.290018
0.290261
0.290528
0.290808
0.291076
0.291262
0.291242
0.291076
0.289964
0.290184
0.290323
0.290311
0.290213
0.290076
0.289925
0.289771
0.289622
0.289482
0.289352
0.289235
0.289128
0.289031
0.288945
0.288866
0.288796
0.288733
0.288675
0.288624
0.288577
0.288534
0.288496
0.288461
0.28843
0.288401
0.288376
0.288353
0.288332
0.288313
0.288297
0.288282
0.288269
0.288258
0.288249
0.288242
0.288236
0.288231
0.288228
0.288227
0.288227
0.288228
0.288231
0.288236
0.288242
0.288249
0.288258
0.288269
0.288282
0.288297
0.288313
0.288332
0.288353
0.288376
0.288401
0.28843
0.288461
0.288496
0.288534
0.288577
0.288624
0.288675
0.288733
0.288796
0.288866
0.288945
0.289031
0.289128
0.289235
0.289352
0.289482
0.289622
0.289771
0.289925
0.290076
0.290213
0.290311
0.290323
0.290184
0.289964
0.289372
0.28956
0.289707
0.289757
0.289743
0.289689
0.289612
0.289522
0.289426
0.289329
0.289234
0.289144
0.289059
0.28898
0.288907
0.288839
0.288777
0.288721
0.288669
0.288621
0.288578
0.288538
0.288502
0.288469
0.288439
0.288412
0.288387
0.288365
0.288345
0.288327
0.28831
0.288296
0.288284
0.288273
0.288264
0.288257
0.288251
0.288246
0.288243
0.288242
0.288242
0.288243
0.288246
0.288251
0.288257
0.288264
0.288273
0.288284
0.288296
0.28831
0.288327
0.288345
0.288365
0.288387
0.288412
0.288439
0.288469
0.288502
0.288538
0.288578
0.288621
0.288669
0.288721
0.288777
0.288839
0.288907
0.28898
0.289059
0.289144
0.289234
0.289329
0.289426
0.289522
0.289612
0.289689
0.289743
0.289757
0.289707
0.28956
0.289372
0.289027
0.289173
0.2893
0.289366
0.289388
0.289377
0.289344
0.289296
0.289237
0.289173
0.289107
0.28904
0.288975
0.288913
0.288853
0.288797
0.288744
0.288695
0.28865
0.288607
0.288568
0.288532
0.288499
0.288468
0.288441
0.288415
0.288392
0.288371
0.288352
0.288334
0.288319
0.288305
0.288293
0.288283
0.288274
0.288267
0.288261
0.288257
0.288254
0.288253
0.288253
0.288254
0.288257
0.288261
0.288267
0.288274
0.288283
0.288293
0.288305
0.288319
0.288334
0.288352
0.288371
0.288392
0.288415
0.288441
0.288468
0.288499
0.288532
0.288568
0.288607
0.28865
0.288695
0.288744
0.288797
0.288853
0.288913
0.288975
0.28904
0.289107
0.289173
0.289237
0.289296
0.289344
0.289377
0.289388
0.289366
0.2893
0.289173
0.289027
0.288806
0.288918
0.289021
0.289086
0.28912
0.289131
0.289122
0.2891
0.289067
0.289026
0.288982
0.288934
0.288886
0.288838
0.288791
0.288745
0.288702
0.28866
0.288621
0.288585
0.28855
0.288518
0.288488
0.288461
0.288435
0.288412
0.28839
0.288371
0.288353
0.288337
0.288322
0.28831
0.288298
0.288289
0.28828
0.288274
0.288268
0.288264
0.288261
0.28826
0.28826
0.288261
0.288264
0.288268
0.288274
0.28828
0.288289
0.288298
0.28831
0.288322
0.288337
0.288353
0.288371
0.28839
0.288412
0.288435
0.288461
0.288488
0.288518
0.28855
0.288585
0.288621
0.28866
0.288702
0.288745
0.288791
0.288838
0.288886
0.288934
0.288982
0.289026
0.289067
0.2891
0.289122
0.289131
0.28912
0.289086
0.289021
0.288918
0.288806
0.288653
0.288739
0.288822
0.28888
0.288917
0.288936
0.288941
0.288934
0.288918
0.288894
0.288865
0.288832
0.288797
0.288761
0.288725
0.288689
0.288654
0.288619
0.288587
0.288555
0.288526
0.288498
0.288472
0.288447
0.288424
0.288403
0.288384
0.288366
0.288349
0.288335
0.288321
0.288309
0.288299
0.28829
0.288282
0.288276
0.288271
0.288267
0.288264
0.288263
0.288263
0.288264
0.288267
0.288271
0.288276
0.288282
0.28829
0.288299
0.288309
0.288321
0.288335
0.288349
0.288366
0.288384
0.288403
0.288424
0.288447
0.288472
0.288498
0.288526
0.288555
0.288587
0.288619
0.288654
0.288689
0.288725
0.288761
0.288797
0.288832
0.288865
0.288894
0.288918
0.288934
0.288941
0.288936
0.288917
0.28888
0.288822
0.288739
0.288653
0.28854
0.288607
0.288674
0.288724
0.288759
0.288782
0.288794
0.288796
0.288789
0.288777
0.288759
0.288737
0.288713
0.288686
0.288659
0.288631
0.288603
0.288575
0.288548
0.288522
0.288497
0.288473
0.28845
0.288429
0.288409
0.28839
0.288372
0.288356
0.288342
0.288328
0.288316
0.288305
0.288296
0.288287
0.28828
0.288274
0.28827
0.288266
0.288264
0.288263
0.288263
0.288264
0.288266
0.28827
0.288274
0.28828
0.288287
0.288296
0.288305
0.288316
0.288328
0.288342
0.288356
0.288372
0.28839
0.288409
0.288429
0.28845
0.288473
0.288497
0.288522
0.288548
0.288575
0.288603
0.288631
0.288659
0.288686
0.288713
0.288737
0.288759
0.288777
0.288789
0.288796
0.288794
0.288782
0.288759
0.288724
0.288674
0.288607
0.28854
0.288454
0.288507
0.288561
0.288604
0.288636
0.288658
0.288673
0.28868
0.28868
0.288674
0.288664
0.28865
0.288634
0.288615
0.288594
0.288573
0.288551
0.288529
0.288507
0.288485
0.288464
0.288444
0.288425
0.288406
0.288389
0.288373
0.288357
0.288343
0.28833
0.288318
0.288307
0.288297
0.288289
0.288281
0.288275
0.288269
0.288265
0.288262
0.28826
0.288259
0.288259
0.28826
0.288262
0.288265
0.288269
0.288275
0.288281
0.288289
0.288297
0.288307
0.288318
0.28833
0.288343
0.288357
0.288373
0.288389
0.288406
0.288425
0.288444
0.288464
0.288485
0.288507
0.288529
0.288551
0.288573
0.288594
0.288615
0.288634
0.28865
0.288664
0.288674
0.28868
0.28868
0.288673
0.288658
0.288636
0.288604
0.288561
0.288507
0.288454
0.288385
0.288428
0.288472
0.288508
0.288536
0.288558
0.288573
0.288582
0.288586
0.288585
0.28858
0.288572
0.288561
0.288548
0.288533
0.288517
0.2885
0.288483
0.288465
0.288448
0.28843
0.288414
0.288397
0.288382
0.288367
0.288353
0.288339
0.288327
0.288315
0.288305
0.288295
0.288287
0.288279
0.288272
0.288266
0.288261
0.288258
0.288255
0.288253
0.288252
0.288252
0.288253
0.288255
0.288258
0.288261
0.288266
0.288272
0.288279
0.288287
0.288295
0.288305
0.288315
0.288327
0.288339
0.288353
0.288367
0.288382
0.288397
0.288414
0.28843
0.288448
0.288465
0.288483
0.2885
0.288517
0.288533
0.288548
0.288561
0.288572
0.28858
0.288585
0.288586
0.288582
0.288573
0.288558
0.288536
0.288508
0.288472
0.288428
0.288385
0.288328
0.288363
0.2884
0.28843
0.288454
0.288474
0.288489
0.288499
0.288505
0.288507
0.288506
0.288501
0.288495
0.288486
0.288475
0.288463
0.288451
0.288437
0.288423
0.288409
0.288395
0.288381
0.288368
0.288355
0.288342
0.28833
0.288319
0.288308
0.288298
0.288289
0.28828
0.288273
0.288266
0.28826
0.288255
0.288251
0.288247
0.288245
0.288243
0.288242
0.288242
0.288243
0.288245
0.288247
0.288251
0.288255
0.28826
0.288266
0.288273
0.28828
0.288289
0.288298
0.288308
0.288319
0.28833
0.288342
0.288355
0.288368
0.288381
0.288395
0.288409
0.288423
0.288437
0.288451
0.288463
0.288475
0.288486
0.288495
0.288501
0.288506
0.288507
0.288505
0.288499
0.288489
0.288474
0.288454
0.28843
0.2884
0.288363
0.288328
0.28828
0.288309
0.288339
0.288365
0.288386
0.288404
0.288418
0.288428
0.288435
0.288439
0.28844
0.288438
0.288434
0.288428
0.288421
0.288413
0.288403
0.288393
0.288382
0.288371
0.28836
0.288349
0.288337
0.288327
0.288316
0.288306
0.288296
0.288287
0.288279
0.288271
0.288263
0.288257
0.288251
0.288246
0.288241
0.288237
0.288234
0.288232
0.288231
0.28823
0.28823
0.288231
0.288232
0.288234
0.288237
0.288241
0.288246
0.288251
0.288257
0.288263
0.288271
0.288279
0.288287
0.288296
0.288306
0.288316
0.288327
0.288337
0.288349
0.28836
0.288371
0.288382
0.288393
0.288403
0.288413
0.288421
0.288428
0.288434
0.288438
0.28844
0.288439
0.288435
0.288428
0.288418
0.288404
0.288386
0.288365
0.288339
0.288309
0.28828
0.288239
0.288263
0.288288
0.28831
0.288328
0.288344
0.288357
0.288367
0.288374
0.288378
0.288381
0.288381
0.288379
0.288376
0.288371
0.288365
0.288358
0.28835
0.288342
0.288333
0.288325
0.288316
0.288306
0.288298
0.288289
0.28828
0.288272
0.288265
0.288257
0.288251
0.288244
0.288239
0.288233
0.288229
0.288225
0.288222
0.288219
0.288217
0.288216
0.288215
0.288215
0.288216
0.288217
0.288219
0.288222
0.288225
0.288229
0.288233
0.288239
0.288244
0.288251
0.288257
0.288265
0.288272
0.28828
0.288289
0.288298
0.288306
0.288316
0.288325
0.288333
0.288342
0.28835
0.288358
0.288365
0.288371
0.288376
0.288379
0.288381
0.288381
0.288378
0.288374
0.288367
0.288357
0.288344
0.288328
0.28831
0.288288
0.288263
0.288239
0.288203
0.288223
0.288244
0.288262
0.288278
0.288292
0.288303
0.288313
0.28832
0.288325
0.288328
0.288329
0.288329
0.288327
0.288324
0.28832
0.288315
0.28831
0.288303
0.288297
0.28829
0.288283
0.288275
0.288268
0.288261
0.288254
0.288247
0.288241
0.288235
0.288229
0.288224
0.288219
0.288214
0.288211
0.288207
0.288204
0.288202
0.288201
0.288199
0.288199
0.288199
0.288199
0.288201
0.288202
0.288204
0.288207
0.288211
0.288214
0.288219
0.288224
0.288229
0.288235
0.288241
0.288247
0.288254
0.288261
0.288268
0.288275
0.288283
0.28829
0.288297
0.288303
0.28831
0.288315
0.28832
0.288324
0.288327
0.288329
0.288329
0.288328
0.288325
0.28832
0.288313
0.288303
0.288292
0.288278
0.288262
0.288244
0.288223
0.288203
0.28817
0.288187
0.288205
0.28822
0.288234
0.288246
0.288256
0.288265
0.288271
0.288277
0.28828
0.288282
0.288283
0.288282
0.288281
0.288278
0.288275
0.288271
0.288266
0.288261
0.288256
0.28825
0.288244
0.288238
0.288233
0.288227
0.288221
0.288216
0.288211
0.288206
0.288202
0.288198
0.288194
0.288191
0.288188
0.288186
0.288184
0.288182
0.288181
0.288181
0.288181
0.288181
0.288182
0.288184
0.288186
0.288188
0.288191
0.288194
0.288198
0.288202
0.288206
0.288211
0.288216
0.288221
0.288227
0.288233
0.288238
0.288244
0.28825
0.288256
0.288261
0.288266
0.288271
0.288275
0.288278
0.288281
0.288282
0.288283
0.288282
0.28828
0.288277
0.288271
0.288265
0.288256
0.288246
0.288234
0.28822
0.288205
0.288187
0.28817
0.28814
0.288154
0.288169
0.288183
0.288194
0.288205
0.288214
0.288221
0.288228
0.288233
0.288236
0.288239
0.28824
0.288241
0.28824
0.288238
0.288236
0.288233
0.28823
0.288226
0.288222
0.288218
0.288213
0.288209
0.288204
0.2882
0.288195
0.288191
0.288187
0.288183
0.288179
0.288176
0.288172
0.28817
0.288167
0.288165
0.288164
0.288162
0.288162
0.288161
0.288161
0.288162
0.288162
0.288164
0.288165
0.288167
0.28817
0.288172
0.288176
0.288179
0.288183
0.288187
0.288191
0.288195
0.2882
0.288204
0.288209
0.288213
0.288218
0.288222
0.288226
0.28823
0.288233
0.288236
0.288238
0.28824
0.288241
0.28824
0.288239
0.288236
0.288233
0.288228
0.288221
0.288214
0.288205
0.288194
0.288183
0.288169
0.288154
0.28814
0.288113
0.288124
0.288137
0.288148
0.288158
0.288167
0.288175
0.288182
0.288188
0.288193
0.288196
0.288199
0.288201
0.288202
0.288202
0.288201
0.2882
0.288198
0.288196
0.288193
0.28819
0.288186
0.288183
0.288179
0.288176
0.288172
0.288168
0.288165
0.288161
0.288158
0.288155
0.288152
0.28815
0.288148
0.288146
0.288144
0.288143
0.288142
0.288141
0.288141
0.288141
0.288141
0.288142
0.288143
0.288144
0.288146
0.288148
0.28815
0.288152
0.288155
0.288158
0.288161
0.288165
0.288168
0.288172
0.288176
0.288179
0.288183
0.288186
0.28819
0.288193
0.288196
0.288198
0.2882
0.288201
0.288202
0.288202
0.288201
0.288199
0.288196
0.288193
0.288188
0.288182
0.288175
0.288167
0.288158
0.288148
0.288137
0.288124
0.288113
0.288086
0.288096
0.288107
0.288116
0.288125
0.288133
0.28814
0.288146
0.288151
0.288156
0.288159
0.288162
0.288164
0.288165
0.288166
0.288165
0.288165
0.288164
0.288162
0.28816
0.288158
0.288156
0.288153
0.28815
0.288147
0.288144
0.288142
0.288139
0.288136
0.288133
0.288131
0.288129
0.288127
0.288125
0.288123
0.288122
0.288121
0.28812
0.288119
0.288119
0.288119
0.288119
0.28812
0.288121
0.288122
0.288123
0.288125
0.288127
0.288129
0.288131
0.288133
0.288136
0.288139
0.288142
0.288144
0.288147
0.28815
0.288153
0.288156
0.288158
0.28816
0.288162
0.288164
0.288165
0.288165
0.288166
0.288165
0.288164
0.288162
0.288159
0.288156
0.288151
0.288146
0.28814
0.288133
0.288125
0.288116
0.288107
0.288096
0.288086
0.288061
0.288069
0.288078
0.288086
0.288094
0.288101
0.288107
0.288112
0.288117
0.288121
0.288124
0.288127
0.288129
0.28813
0.288131
0.288132
0.288131
0.288131
0.28813
0.288129
0.288127
0.288125
0.288123
0.288121
0.288119
0.288117
0.288115
0.288112
0.28811
0.288108
0.288106
0.288104
0.288103
0.288101
0.2881
0.288099
0.288098
0.288097
0.288097
0.288096
0.288096
0.288097
0.288097
0.288098
0.288099
0.2881
0.288101
0.288103
0.288104
0.288106
0.288108
0.28811
0.288112
0.288115
0.288117
0.288119
0.288121
0.288123
0.288125
0.288127
0.288129
0.28813
0.288131
0.288131
0.288132
0.288131
0.28813
0.288129
0.288127
0.288124
0.288121
0.288117
0.288112
0.288107
0.288101
0.288094
0.288086
0.288078
0.288069
0.288061
0.288037
0.288044
0.288051
0.288058
0.288064
0.28807
0.288076
0.28808
0.288085
0.288088
0.288091
0.288094
0.288096
0.288098
0.288099
0.288099
0.288099
0.288099
0.288099
0.288098
0.288097
0.288096
0.288094
0.288093
0.288091
0.288089
0.288088
0.288086
0.288084
0.288083
0.288081
0.288079
0.288078
0.288077
0.288076
0.288075
0.288074
0.288074
0.288073
0.288073
0.288073
0.288073
0.288074
0.288074
0.288075
0.288076
0.288077
0.288078
0.288079
0.288081
0.288083
0.288084
0.288086
0.288088
0.288089
0.288091
0.288093
0.288094
0.288096
0.288097
0.288098
0.288099
0.288099
0.288099
0.288099
0.288099
0.288098
0.288096
0.288094
0.288091
0.288088
0.288085
0.28808
0.288076
0.28807
0.288064
0.288058
0.288051
0.288044
0.288037
0.288013
0.288019
0.288025
0.288031
0.288036
0.288041
0.288046
0.28805
0.288054
0.288057
0.28806
0.288063
0.288065
0.288066
0.288067
0.288068
0.288068
0.288069
0.288068
0.288068
0.288067
0.288067
0.288066
0.288064
0.288063
0.288062
0.288061
0.288059
0.288058
0.288057
0.288056
0.288054
0.288053
0.288052
0.288052
0.288051
0.28805
0.28805
0.288049
0.288049
0.288049
0.288049
0.28805
0.28805
0.288051
0.288052
0.288052
0.288053
0.288054
0.288056
0.288057
0.288058
0.288059
0.288061
0.288062
0.288063
0.288064
0.288066
0.288067
0.288067
0.288068
0.288068
0.288069
0.288068
0.288068
0.288067
0.288066
0.288065
0.288063
0.28806
0.288057
0.288054
0.28805
0.288046
0.288041
0.288036
0.288031
0.288025
0.288019
0.288013
0.287989
0.287994
0.288
0.288005
0.288009
0.288014
0.288018
0.288021
0.288025
0.288028
0.28803
0.288032
0.288034
0.288036
0.288037
0.288038
0.288039
0.288039
0.288039
0.288039
0.288039
0.288038
0.288037
0.288037
0.288036
0.288035
0.288034
0.288033
0.288032
0.288031
0.28803
0.288029
0.288028
0.288028
0.288027
0.288026
0.288026
0.288026
0.288025
0.288025
0.288025
0.288025
0.288026
0.288026
0.288026
0.288027
0.288028
0.288028
0.288029
0.28803
0.288031
0.288032
0.288033
0.288034
0.288035
0.288036
0.288037
0.288037
0.288038
0.288039
0.288039
0.288039
0.288039
0.288039
0.288038
0.288037
0.288036
0.288034
0.288032
0.28803
0.288028
0.288025
0.288021
0.288018
0.288014
0.288009
0.288005
0.288
0.287994
0.287989
0.287966
0.28797
0.287975
0.287979
0.287983
0.287987
0.28799
0.287993
0.287996
0.287999
0.288001
0.288003
0.288005
0.288007
0.288008
0.288009
0.288009
0.28801
0.28801
0.28801
0.28801
0.28801
0.28801
0.288009
0.288009
0.288008
0.288007
0.288006
0.288006
0.288005
0.288004
0.288004
0.288003
0.288002
0.288002
0.288002
0.288001
0.288001
0.288001
0.288001
0.288001
0.288001
0.288001
0.288001
0.288002
0.288002
0.288002
0.288003
0.288004
0.288004
0.288005
0.288006
0.288006
0.288007
0.288008
0.288009
0.288009
0.28801
0.28801
0.28801
0.28801
0.28801
0.28801
0.288009
0.288009
0.288008
0.288007
0.288005
0.288003
0.288001
0.287999
0.287996
0.287993
0.28799
0.287987
0.287983
0.287979
0.287975
0.28797
0.287966
0.287943
0.287947
0.28795
0.287954
0.287957
0.28796
0.287963
0.287966
0.287969
0.287971
0.287973
0.287975
0.287977
0.287978
0.287979
0.28798
0.287981
0.287982
0.287982
0.287982
0.287982
0.287982
0.287982
0.287982
0.287981
0.287981
0.287981
0.28798
0.28798
0.287979
0.287979
0.287978
0.287978
0.287977
0.287977
0.287977
0.287976
0.287976
0.287976
0.287976
0.287976
0.287976
0.287976
0.287976
0.287977
0.287977
0.287977
0.287978
0.287978
0.287979
0.287979
0.28798
0.28798
0.287981
0.287981
0.287981
0.287982
0.287982
0.287982
0.287982
0.287982
0.287982
0.287982
0.287981
0.28798
0.287979
0.287978
0.287977
0.287975
0.287973
0.287971
0.287969
0.287966
0.287963
0.28796
0.287957
0.287954
0.28795
0.287947
0.287943
0.28792
0.287923
0.287926
0.287929
0.287932
0.287935
0.287937
0.28794
0.287942
0.287944
0.287946
0.287948
0.287949
0.28795
0.287952
0.287953
0.287953
0.287954
0.287954
0.287955
0.287955
0.287955
0.287955
0.287955
0.287955
0.287954
0.287954
0.287954
0.287954
0.287953
0.287953
0.287952
0.287952
0.287952
0.287952
0.287951
0.287951
0.287951
0.287951
0.287951
0.287951
0.287951
0.287951
0.287951
0.287951
0.287952
0.287952
0.287952
0.287952
0.287953
0.287953
0.287954
0.287954
0.287954
0.287954
0.287955
0.287955
0.287955
0.287955
0.287955
0.287955
0.287954
0.287954
0.287953
0.287953
0.287952
0.28795
0.287949
0.287948
0.287946
0.287944
0.287942
0.28794
0.287937
0.287935
0.287932
0.287929
0.287926
0.287923
0.28792
0.287897
0.2879
0.287902
0.287905
0.287907
0.287909
0.287912
0.287914
0.287916
0.287918
0.287919
0.287921
0.287922
0.287923
0.287924
0.287925
0.287926
0.287927
0.287927
0.287928
0.287928
0.287928
0.287928
0.287928
0.287928
0.287928
0.287928
0.287928
0.287928
0.287927
0.287927
0.287927
0.287927
0.287926
0.287926
0.287926
0.287926
0.287926
0.287926
0.287926
0.287926
0.287926
0.287926
0.287926
0.287926
0.287926
0.287926
0.287927
0.287927
0.287927
0.287927
0.287928
0.287928
0.287928
0.287928
0.287928
0.287928
0.287928
0.287928
0.287928
0.287928
0.287927
0.287927
0.287926
0.287925
0.287924
0.287923
0.287922
0.287921
0.287919
0.287918
0.287916
0.287914
0.287912
0.287909
0.287907
0.287905
0.287902
0.2879
0.287897
0.287874
0.287876
0.287878
0.28788
0.287882
0.287884
0.287886
0.287888
0.28789
0.287891
0.287893
0.287894
0.287896
0.287897
0.287898
0.287899
0.287899
0.2879
0.2879
0.287901
0.287901
0.287901
0.287902
0.287902
0.287902
0.287902
0.287902
0.287902
0.287902
0.287901
0.287901
0.287901
0.287901
0.287901
0.287901
0.287901
0.287901
0.287901
0.2879
0.2879
0.2879
0.2879
0.287901
0.287901
0.287901
0.287901
0.287901
0.287901
0.287901
0.287901
0.287901
0.287902
0.287902
0.287902
0.287902
0.287902
0.287902
0.287902
0.287901
0.287901
0.287901
0.2879
0.2879
0.287899
0.287899
0.287898
0.287897
0.287896
0.287894
0.287893
0.287891
0.28789
0.287888
0.287886
0.287884
0.287882
0.28788
0.287878
0.287876
0.287874
0.287851
0.287853
0.287855
0.287856
0.287858
0.28786
0.287861
0.287863
0.287864
0.287866
0.287867
0.287868
0.287869
0.28787
0.287871
0.287872
0.287873
0.287873
0.287874
0.287874
0.287875
0.287875
0.287875
0.287876
0.287876
0.287876
0.287876
0.287876
0.287876
0.287876
0.287876
0.287876
0.287875
0.287875
0.287875
0.287875
0.287875
0.287875
0.287875
0.287875
0.287875
0.287875
0.287875
0.287875
0.287875
0.287875
0.287875
0.287875
0.287876
0.287876
0.287876
0.287876
0.287876
0.287876
0.287876
0.287876
0.287876
0.287875
0.287875
0.287875
0.287874
0.287874
0.287873
0.287873
0.287872
0.287871
0.28787
0.287869
0.287868
0.287867
0.287866
0.287864
0.287863
0.287861
0.28786
0.287858
0.287856
0.287855
0.287853
0.287851
0.287828
0.287829
0.287831
0.287832
0.287834
0.287835
0.287836
0.287838
0.287839
0.28784
0.287841
0.287843
0.287844
0.287844
0.287845
0.287846
0.287847
0.287847
0.287848
0.287848
0.287849
0.287849
0.287849
0.287849
0.28785
0.28785
0.28785
0.28785
0.28785
0.28785
0.28785
0.28785
0.28785
0.28785
0.28785
0.28785
0.28785
0.28785
0.28785
0.28785
0.28785
0.28785
0.28785
0.28785
0.28785
0.28785
0.28785
0.28785
0.28785
0.28785
0.28785
0.28785
0.28785
0.28785
0.28785
0.28785
0.287849
0.287849
0.287849
0.287849
0.287848
0.287848
0.287847
0.287847
0.287846
0.287845
0.287844
0.287844
0.287843
0.287841
0.28784
0.287839
0.287838
0.287836
0.287835
0.287834
0.287832
0.287831
0.287829
0.287828
0.287805
0.287806
0.287807
0.287808
0.287809
0.287811
0.287812
0.287813
0.287814
0.287815
0.287816
0.287817
0.287818
0.287819
0.287819
0.28782
0.287821
0.287821
0.287822
0.287822
0.287823
0.287823
0.287823
0.287824
0.287824
0.287824
0.287824
0.287824
0.287824
0.287824
0.287824
0.287824
0.287824
0.287824
0.287824
0.287824
0.287824
0.287824
0.287824
0.287824
0.287824
0.287824
0.287824
0.287824
0.287824
0.287824
0.287824
0.287824
0.287824
0.287824
0.287824
0.287824
0.287824
0.287824
0.287824
0.287824
0.287824
0.287823
0.287823
0.287823
0.287822
0.287822
0.287821
0.287821
0.28782
0.287819
0.287819
0.287818
0.287817
0.287816
0.287815
0.287814
0.287813
0.287812
0.287811
0.287809
0.287808
0.287807
0.287806
0.287805
0.287781
0.287782
0.287783
0.287784
0.287785
0.287786
0.287787
0.287788
0.287789
0.28779
0.287791
0.287792
0.287792
0.287793
0.287794
0.287795
0.287795
0.287796
0.287796
0.287797
0.287797
0.287797
0.287798
0.287798
0.287798
0.287798
0.287798
0.287798
0.287799
0.287799
0.287799
0.287799
0.287799
0.287799
0.287799
0.287799
0.287799
0.287799
0.287799
0.287799
0.287799
0.287799
0.287799
0.287799
0.287799
0.287799
0.287799
0.287799
0.287799
0.287799
0.287799
0.287799
0.287798
0.287798
0.287798
0.287798
0.287798
0.287798
0.287797
0.287797
0.287797
0.287796
0.287796
0.287795
0.287795
0.287794
0.287793
0.287792
0.287792
0.287791
0.28779
0.287789
0.287788
0.287787
0.287786
0.287785
0.287784
0.287783
0.287782
0.287781
0.287758
0.287758
0.287759
0.28776
0.287761
0.287762
0.287763
0.287763
0.287764
0.287765
0.287766
0.287767
0.287767
0.287768
0.287768
0.287769
0.28777
0.28777
0.287771
0.287771
0.287771
0.287772
0.287772
0.287772
0.287772
0.287773
0.287773
0.287773
0.287773
0.287773
0.287773
0.287773
0.287773
0.287773
0.287773
0.287774
0.287774
0.287774
0.287774
0.287774
0.287774
0.287774
0.287774
0.287774
0.287774
0.287773
0.287773
0.287773
0.287773
0.287773
0.287773
0.287773
0.287773
0.287773
0.287773
0.287772
0.287772
0.287772
0.287772
0.287771
0.287771
0.287771
0.28777
0.28777
0.287769
0.287768
0.287768
0.287767
0.287767
0.287766
0.287765
0.287764
0.287763
0.287763
0.287762
0.287761
0.28776
0.287759
0.287758
0.287758
0.287734
0.287735
0.287735
0.287736
0.287737
0.287737
0.287738
0.287739
0.28774
0.28774
0.287741
0.287741
0.287742
0.287743
0.287743
0.287744
0.287744
0.287745
0.287745
0.287745
0.287746
0.287746
0.287746
0.287747
0.287747
0.287747
0.287747
0.287747
0.287748
0.287748
0.287748
0.287748
0.287748
0.287748
0.287748
0.287748
0.287748
0.287748
0.287748
0.287748
0.287748
0.287748
0.287748
0.287748
0.287748
0.287748
0.287748
0.287748
0.287748
0.287748
0.287748
0.287748
0.287747
0.287747
0.287747
0.287747
0.287747
0.287746
0.287746
0.287746
0.287745
0.287745
0.287745
0.287744
0.287744
0.287743
0.287743
0.287742
0.287741
0.287741
0.28774
0.28774
0.287739
0.287738
0.287737
0.287737
0.287736
0.287735
0.287735
0.287734
0.28771
0.287711
0.287711
0.287712
0.287712
0.287713
0.287714
0.287714
0.287715
0.287715
0.287716
0.287717
0.287717
0.287718
0.287718
0.287718
0.287719
0.287719
0.28772
0.28772
0.28772
0.287721
0.287721
0.287721
0.287721
0.287722
0.287722
0.287722
0.287722
0.287722
0.287722
0.287722
0.287723
0.287723
0.287723
0.287723
0.287723
0.287723
0.287723
0.287723
0.287723
0.287723
0.287723
0.287723
0.287723
0.287723
0.287723
0.287723
0.287722
0.287722
0.287722
0.287722
0.287722
0.287722
0.287722
0.287721
0.287721
0.287721
0.287721
0.28772
0.28772
0.28772
0.287719
0.287719
0.287718
0.287718
0.287718
0.287717
0.287717
0.287716
0.287715
0.287715
0.287714
0.287714
0.287713
0.287712
0.287712
0.287711
0.287711
0.28771
0.287686
0.287687
0.287687
0.287688
0.287688
0.287689
0.287689
0.28769
0.28769
0.287691
0.287691
0.287692
0.287692
0.287693
0.287693
0.287693
0.287694
0.287694
0.287694
0.287695
0.287695
0.287695
0.287696
0.287696
0.287696
0.287696
0.287696
0.287697
0.287697
0.287697
0.287697
0.287697
0.287697
0.287697
0.287697
0.287697
0.287697
0.287697
0.287698
0.287698
0.287698
0.287698
0.287697
0.287697
0.287697
0.287697
0.287697
0.287697
0.287697
0.287697
0.287697
0.287697
0.287697
0.287696
0.287696
0.287696
0.287696
0.287696
0.287695
0.287695
0.287695
0.287694
0.287694
0.287694
0.287693
0.287693
0.287693
0.287692
0.287692
0.287691
0.287691
0.28769
0.28769
0.287689
0.287689
0.287688
0.287688
0.287687
0.287687
0.287686
0.287662
0.287663
0.287663
0.287663
0.287664
0.287664
0.287665
0.287665
0.287666
0.287666
0.287666
0.287667
0.287667
0.287668
0.287668
0.287668
0.287669
0.287669
0.287669
0.28767
0.28767
0.28767
0.28767
0.287671
0.287671
0.287671
0.287671
0.287671
0.287671
0.287672
0.287672
0.287672
0.287672
0.287672
0.287672
0.287672
0.287672
0.287672
0.287672
0.287672
0.287672
0.287672
0.287672
0.287672
0.287672
0.287672
0.287672
0.287672
0.287672
0.287672
0.287672
0.287671
0.287671
0.287671
0.287671
0.287671
0.287671
0.28767
0.28767
0.28767
0.28767
0.287669
0.287669
0.287669
0.287668
0.287668
0.287668
0.287667
0.287667
0.287666
0.287666
0.287666
0.287665
0.287665
0.287664
0.287664
0.287663
0.287663
0.287663
0.287662
0.287638
0.287639
0.287639
0.287639
0.287639
0.28764
0.28764
0.287641
0.287641
0.287641
0.287642
0.287642
0.287642
0.287643
0.287643
0.287643
0.287644
0.287644
0.287644
0.287644
0.287645
0.287645
0.287645
0.287645
0.287646
0.287646
0.287646
0.287646
0.287646
0.287646
0.287646
0.287647
0.287647
0.287647
0.287647
0.287647
0.287647
0.287647
0.287647
0.287647
0.287647
0.287647
0.287647
0.287647
0.287647
0.287647
0.287647
0.287647
0.287647
0.287646
0.287646
0.287646
0.287646
0.287646
0.287646
0.287646
0.287645
0.287645
0.287645
0.287645
0.287644
0.287644
0.287644
0.287644
0.287643
0.287643
0.287643
0.287642
0.287642
0.287642
0.287641
0.287641
0.287641
0.28764
0.28764
0.287639
0.287639
0.287639
0.287639
0.287638
0.287614
0.287614
0.287615
0.287615
0.287615
0.287615
0.287616
0.287616
0.287616
0.287617
0.287617
0.287617
0.287617
0.287618
0.287618
0.287618
0.287619
0.287619
0.287619
0.287619
0.28762
0.28762
0.28762
0.28762
0.28762
0.287621
0.287621
0.287621
0.287621
0.287621
0.287621
0.287621
0.287621
0.287621
0.287622
0.287622
0.287622
0.287622
0.287622
0.287622
0.287622
0.287622
0.287622
0.287622
0.287622
0.287622
0.287621
0.287621
0.287621
0.287621
0.287621
0.287621
0.287621
0.287621
0.287621
0.28762
0.28762
0.28762
0.28762
0.28762
0.287619
0.287619
0.287619
0.287619
0.287618
0.287618
0.287618
0.287617
0.287617
0.287617
0.287617
0.287616
0.287616
0.287616
0.287615
0.287615
0.287615
0.287615
0.287614
0.287614
0.28759
0.28759
0.28759
0.28759
0.287591
0.287591
0.287591
0.287591
0.287592
0.287592
0.287592
0.287592
0.287593
0.287593
0.287593
0.287593
0.287594
0.287594
0.287594
0.287594
0.287595
0.287595
0.287595
0.287595
0.287595
0.287595
0.287596
0.287596
0.287596
0.287596
0.287596
0.287596
0.287596
0.287596
0.287596
0.287596
0.287596
0.287596
0.287596
0.287596
0.287596
0.287596
0.287596
0.287596
0.287596
0.287596
0.287596
0.287596
0.287596
0.287596
0.287596
0.287596
0.287596
0.287596
0.287595
0.287595
0.287595
0.287595
0.287595
0.287595
0.287594
0.287594
0.287594
0.287594
0.287593
0.287593
0.287593
0.287593
0.287592
0.287592
0.287592
0.287592
0.287591
0.287591
0.287591
0.287591
0.28759
0.28759
0.28759
0.28759
0.287566
0.287566
0.287566
0.287566
0.287566
0.287566
0.287567
0.287567
0.287567
0.287567
0.287567
0.287568
0.287568
0.287568
0.287568
0.287568
0.287569
0.287569
0.287569
0.287569
0.287569
0.28757
0.28757
0.28757
0.28757
0.28757
0.28757
0.287571
0.287571
0.287571
0.287571
0.287571
0.287571
0.287571
0.287571
0.287571
0.287571
0.287571
0.287571
0.287571
0.287571
0.287571
0.287571
0.287571
0.287571
0.287571
0.287571
0.287571
0.287571
0.287571
0.287571
0.287571
0.287571
0.28757
0.28757
0.28757
0.28757
0.28757
0.28757
0.287569
0.287569
0.287569
0.287569
0.287569
0.287568
0.287568
0.287568
0.287568
0.287568
0.287567
0.287567
0.287567
0.287567
0.287567
0.287566
0.287566
0.287566
0.287566
0.287566
0.287566
0.287541
0.287541
0.287541
0.287542
0.287542
0.287542
0.287542
0.287542
0.287542
0.287542
0.287543
0.287543
0.287543
0.287543
0.287543
0.287544
0.287544
0.287544