/*--------------------------------*- C++ -*----------------------------------*\
  =========                 |
  \\      /  F ield         | OpenFOAM: The Open Source CFD Toolbox
   \\    /   O peration     | Website:  https://openfoam.org
    \\  /    A nd           | Version:  11
     \\/     M anipulation  |
\*---------------------------------------------------------------------------*/
FoamFile
{
    format      ascii;
    class       volScalarField;
    location    "5";
    object      C;
}
// * * * * * * * * * * * * * * * * * * * * * * * * * * * * * * * * * * * * * //

dimensions      [0 0 0 1 0 0 0];

internalField   nonuniform List<scalar> 
427520
(
4.27916e-231
3.75734e-231
3.02106e-231
2.27054e-231
1.61423e-231
1.09426e-231
7.11212e-232
4.45036e-232
2.69002e-232
1.57501e-232
8.95369e-233
4.95216e-233
2.66953e-233
1.40476e-233
7.22621e-234
3.63844e-234
1.79526e-234
8.69003e-235
4.13086e-235
1.93022e-235
8.87395e-236
4.01747e-236
1.79256e-236
7.88896e-237
3.42686e-237
1.47021e-237
6.233e-238
2.61217e-238
1.08227e-238
4.43181e-239
1.7922e-239
7.14544e-240
2.80022e-240
1.07294e-240
3.9819e-241
1.40615e-241
4.54925e-242
1.21538e-242
1.51776e-243
-1.22365e-243
-1.4839e-243
-1.13024e-243
-7.40091e-244
-4.49779e-244
-2.61587e-244
-1.47824e-244
-8.18666e-245
-4.46654e-245
-2.40879e-245
-1.28693e-245
-6.82154e-246
-3.59083e-246
-1.87809e-246
-9.76112e-247
-5.03982e-247
-2.58287e-247
-1.31185e-247
-6.58533e-248
-3.25149e-248
-1.56386e-248
-7.15122e-249
-2.85076e-249
-5.08718e-250
1.15204e-249
3.0448e-249
6.11906e-249
1.17233e-248
2.20323e-248
4.06122e-248
7.31622e-248
1.28401e-247
2.18941e-247
3.61755e-247
5.77538e-247
8.87873e-247
1.30883e-246
1.83969e-246
2.44644e-246
3.04126e-246
3.46259e-246
1.58803e-230
1.43642e-230
1.2036e-230
9.47453e-231
7.07122e-231
5.03686e-231
3.44091e-231
2.26304e-231
1.4374e-231
8.84048e-232
5.27678e-232
3.06276e-232
1.73167e-232
9.552e-233
5.1477e-233
2.71379e-233
1.40118e-233
7.0933e-234
3.5244e-234
1.72039e-234
8.25813e-235
3.9015e-235
1.8157e-235
8.33053e-236
3.77092e-236
1.68532e-236
7.44159e-237
3.24832e-237
1.40242e-237
5.99084e-238
2.53265e-238
1.05956e-238
4.38514e-239
1.7938e-239
7.24138e-240
2.87723e-240
1.12027e-240
4.24272e-241
1.54252e-241
5.24663e-242
1.57134e-242
3.35695e-243
-2.53526e-244
-9.60082e-244
-8.41299e-244
-5.78079e-244
-3.57983e-244
-2.0931e-244
-1.18027e-244
-6.49166e-245
-3.50581e-245
-1.86657e-245
-9.82212e-246
-5.1154e-246
-2.63807e-246
-1.3467e-246
-6.79566e-247
-3.37989e-247
-1.64738e-247
-7.77003e-248
-3.42224e-248
-1.21167e-248
4.36987e-250
1.03485e-248
2.27499e-248
4.3091e-248
7.89315e-248
1.41856e-247
2.49716e-247
4.29147e-247
7.17934e-247
1.16625e-246
1.83501e-246
2.78894e-246
4.08143e-246
5.72888e-246
7.67482e-246
9.74901e-246
1.16343e-245
1.2862e-245
3.56912e-230
3.2595e-230
2.7734e-230
2.22564e-230
1.69827e-230
1.23947e-230
8.6907e-231
5.8744e-231
3.83883e-231
2.4311e-231
1.49509e-231
8.94488e-232
5.21453e-232
2.96625e-232
1.6486e-232
8.96307e-233
4.77213e-233
2.49077e-233
1.2757e-233
6.41748e-234
3.17373e-234
1.54432e-234
7.39998e-235
3.49457e-235
1.62765e-235
7.48253e-236
3.39752e-236
1.52469e-236
6.76657e-237
2.97129e-237
1.2915e-237
5.55841e-238
2.36899e-238
9.99743e-239
4.17578e-239
1.72476e-239
7.03379e-240
2.82504e-240
1.11289e-240
4.27109e-241
1.57833e-241
5.49242e-242
1.71251e-242
4.10105e-243
1.19656e-244
-7.78802e-244
-7.5516e-244
-5.37826e-244
-3.39444e-244
-2.009e-244
-1.14281e-244
-6.32883e-245
-3.43748e-245
-1.8394e-245
-9.72328e-246
-5.08508e-246
-2.63225e-246
-1.34775e-246
-6.80904e-247
-3.37207e-247
-1.60446e-247
-6.78572e-248
-1.48083e-248
2.45428e-248
6.82613e-248
1.33588e-247
2.42221e-247
4.2521e-247
7.27968e-247
1.21517e-246
1.97442e-246
3.11634e-246
4.7677e-246
7.05287e-246
1.00592e-245
1.3784e-245
1.80661e-245
2.25155e-245
2.64646e-245
2.89808e-245
7.22582e-230
6.6245e-230
5.6741e-230
4.59432e-230
3.54442e-230
2.62037e-230
1.86432e-230
1.28075e-230
8.51856e-231
5.49803e-231
3.44999e-231
2.1082e-231
1.25638e-231
7.31145e-232
4.15976e-232
2.31622e-232
1.2635e-232
6.75873e-233
3.54843e-233
1.83005e-233
9.2791e-234
4.62929e-234
2.27419e-234
1.10096e-234
5.25619e-235
2.47647e-235
1.15229e-235
5.29834e-236
2.40903e-236
1.08373e-236
4.82619e-237
2.12858e-237
9.30103e-238
4.02747e-238
1.72831e-238
7.34906e-239
3.09505e-239
1.28988e-239
5.31175e-240
2.15631e-240
8.59689e-241
3.34583e-241
1.25818e-241
4.48603e-242
1.45692e-242
3.85434e-243
4.25849e-244
-4.4674e-244
-5.14609e-244
-3.86593e-244
-2.51037e-244
-1.51465e-244
-8.74626e-245
-4.90614e-245
-2.69607e-245
-1.45881e-245
-7.79594e-246
-4.12113e-246
-2.15489e-246
-1.11109e-246
-5.58019e-247
-2.60228e-247
-8.798e-248
3.41373e-248
1.56917e-247
3.24945e-247
5.89677e-247
1.02039e-246
1.71432e-246
2.80561e-246
4.47094e-246
6.92747e-246
1.04168e-245
1.51667e-245
2.13237e-245
2.88528e-245
3.74104e-245
4.62164e-245
5.39696e-245
5.88773e-245
1.4148e-229
1.29917e-229
1.11603e-229
9.07363e-230
7.03735e-230
5.23676e-230
3.75498e-230
2.60316e-230
1.74951e-230
1.14242e-230
7.26179e-231
4.50049e-231
2.72315e-231
1.61065e-231
9.32216e-232
5.28496e-232
2.93743e-232
1.602e-232
8.57975e-233
4.51584e-233
2.33765e-233
1.191e-233
5.97642e-234
2.9558e-234
1.44181e-234
6.9412e-235
3.30018e-235
1.55058e-235
7.20406e-236
3.31165e-236
1.50709e-236
6.79344e-237
3.03458e-237
1.34381e-237
5.90126e-238
2.57039e-238
1.1105e-238
4.75808e-239
2.02092e-239
8.50199e-240
3.53807e-240
1.45337e-240
5.87394e-241
2.32367e-241
8.92061e-242
3.27337e-242
1.11371e-242
3.25816e-243
6.04528e-244
-1.54352e-244
-2.8192e-244
-2.3342e-244
-1.58797e-244
-9.87199e-245
-5.83076e-245
-3.33316e-245
-1.86294e-245
-1.024e-245
-5.55227e-246
-2.96882e-246
-1.55302e-246
-7.68022e-247
-3.06521e-247
1.41874e-248
3.1638e-247
7.02672e-247
1.28463e-246
2.20574e-246
3.66151e-246
5.91634e-246
9.31322e-246
1.42684e-245
2.12393e-245
3.06508e-245
4.27666e-245
5.74984e-245
7.4167e-245
9.12585e-245
1.06266e-244
1.15745e-244
2.73618e-229
2.51432e-229
2.16265e-229
1.7616e-229
1.3697e-229
1.02253e-229
7.36141e-230
5.12826e-230
3.46665e-230
2.27918e-230
1.46017e-230
9.13037e-231
5.57993e-231
3.33687e-231
1.95467e-231
1.12262e-231
6.32682e-232
3.5016e-232
1.90455e-232
1.01875e-232
5.3626e-233
2.77973e-233
1.4198e-233
7.15014e-234
3.55254e-234
1.74247e-234
8.44224e-235
4.04274e-235
1.9146e-235
8.97248e-236
4.16318e-236
1.9136e-236
8.71792e-237
3.93836e-237
1.76498e-237
7.84962e-238
3.46544e-238
1.51896e-238
6.61045e-239
2.85595e-239
1.22446e-239
5.20614e-240
2.1927e-240
9.13226e-241
3.75107e-241
1.51326e-241
5.95634e-242
2.26194e-242
8.11608e-243
2.62886e-243
6.71713e-244
4.50139e-245
-1.10098e-244
-1.16035e-244
-8.63383e-245
-5.64573e-245
-3.45279e-245
-2.02763e-245
-1.15826e-245
-6.4709e-246
-3.52244e-246
-1.8175e-246
-7.83133e-247
-5.73012e-248
6.11444e-247
1.43547e-246
2.64167e-246
4.51567e-246
7.44051e-246
1.19288e-245
1.86408e-245
2.83738e-245
4.19998e-245
6.03254e-245
8.38448e-245
1.12376e-244
1.446e-244
1.776e-244
2.06548e-244
2.24821e-244
5.26577e-229
4.84027e-229
4.16567e-229
3.39608e-229
2.64367e-229
1.97667e-229
1.4259e-229
9.95849e-230
6.75291e-230
4.45666e-230
2.86822e-230
1.80312e-230
1.10883e-230
6.67828e-231
3.94352e-231
2.28521e-231
1.30062e-231
7.2759e-232
4.00343e-232
2.16803e-232
1.15626e-232
6.07653e-233
3.14858e-233
1.60945e-233
8.12055e-234
4.04648e-234
1.99247e-234
9.69993e-235
4.67136e-235
2.22666e-235
1.05107e-235
4.91594e-236
2.27931e-236
1.04819e-236
4.78317e-237
2.16684e-237
9.74865e-238
4.3573e-238
1.93537e-238
8.54409e-239
3.74933e-239
1.6353e-239
7.08737e-240
3.0507e-240
1.30311e-240
5.51652e-241
2.30997e-241
9.53944e-242
3.86757e-242
1.5282e-242
5.81199e-243
2.07748e-243
6.61268e-244
1.57428e-244
-1.42957e-246
-3.81482e-245
-3.67339e-245
-2.6777e-245
-1.74152e-245
-1.06154e-245
-6.14697e-246
-3.31152e-246
-1.45831e-246
-7.6127e-248
1.24654e-246
2.89302e-246
5.29345e-246
8.99768e-246
1.47444e-245
2.35208e-245
3.65958e-245
5.54994e-245
8.19038e-245
1.17353e-244
1.6279e-244
2.17856e-244
2.80009e-244
3.43627e-244
3.99415e-244
4.34623e-244
1.01129e-228
9.29697e-229
8.00333e-229
6.52732e-229
5.08399e-229
3.80413e-229
2.74687e-229
1.92088e-229
1.30469e-229
8.62813e-230
5.56701e-230
3.51058e-230
2.16687e-230
1.31081e-230
7.78008e-231
4.53506e-231
2.59842e-231
1.46452e-231
8.12533e-232
4.44037e-232
2.39159e-232
1.27024e-232
6.65645e-233
3.44338e-233
1.75926e-233
8.88165e-234
4.43295e-234
2.18848e-234
1.06921e-234
5.17206e-235
2.47837e-235
1.17703e-235
5.543e-236
2.5897e-236
1.20091e-236
5.53013e-237
2.52997e-237
1.15036e-237
5.2007e-238
2.33856e-238
1.04622e-238
4.65779e-239
2.06387e-239
9.10215e-240
3.99508e-240
1.74466e-240
7.57683e-241
3.26981e-241
1.40058e-241
5.94423e-242
2.4933e-242
1.02963e-242
4.16124e-243
1.62984e-243
6.07881e-244
2.08238e-244
5.95742e-245
8.92136e-246
-5.33919e-246
-7.21761e-246
-5.57691e-246
-3.36394e-246
-1.30899e-246
6.54224e-247
2.8925e-246
5.94671e-246
1.05537e-245
1.77295e-245
2.88758e-245
4.58821e-245
7.11839e-245
1.0772e-244
1.58704e-244
2.27101e-244
3.14723e-244
4.20872e-244
5.40652e-244
6.63231e-244
7.70711e-244
8.38537e-244
1.94031e-228
1.78388e-228
1.53585e-228
1.25284e-228
9.76066e-229
7.30614e-229
5.27815e-229
3.69336e-229
2.51069e-229
1.66217e-229
1.07394e-229
6.78404e-230
4.19636e-230
2.54516e-230
1.51538e-230
8.86621e-231
5.10216e-231
2.89014e-231
1.61267e-231
8.8698e-232
4.81154e-232
2.5757e-232
1.36135e-232
7.1076e-233
3.66741e-233
1.87102e-233
9.44239e-234
4.71588e-234
2.33195e-234
1.14222e-234
5.54443e-235
2.66832e-235
1.27379e-235
6.03452e-236
2.83839e-236
1.32615e-236
6.15748e-237
2.84251e-237
1.30521e-237
5.96381e-238
2.71272e-238
1.22881e-238
5.5451e-239
2.49348e-239
1.11758e-239
4.99351e-240
2.22449e-240
9.88e-241
4.37469e-241
1.93065e-241
8.48913e-242
3.71686e-242
1.61915e-242
7.00985e-243
3.01146e-243
1.28117e-243
5.38294e-244
2.22601e-244
9.02641e-245
3.58642e-245
1.42291e-245
6.27087e-246
4.1446e-246
4.86717e-246
7.63101e-246
1.27347e-245
2.12289e-245
3.48854e-245
5.63086e-245
8.90865e-245
1.37881e-244
2.08333e-244
3.0662e-244
4.38445e-244
6.07286e-244
8.11799e-244
1.04255e-243
1.27867e-243
1.4857e-243
1.61635e-243
3.72093e-228
3.42106e-228
2.94558e-228
2.40302e-228
1.87241e-228
1.40181e-228
1.01295e-228
7.09039e-229
4.82203e-229
3.19417e-229
2.0653e-229
1.30588e-229
8.08743e-230
4.91256e-230
2.93038e-230
1.71841e-230
9.9158e-231
5.63507e-231
3.15624e-231
1.74357e-231
9.50556e-232
5.11719e-232
2.72164e-232
1.43083e-232
7.4388e-233
3.82625e-233
1.94798e-233
9.82024e-234
4.9042e-234
2.42721e-234
1.19103e-234
5.79695e-235
2.79981e-235
1.34246e-235
6.39307e-236
3.02518e-236
1.42306e-236
6.65772e-237
3.09924e-237
1.43618e-237
6.628e-238
3.04768e-238
1.39687e-238
6.38442e-239
2.91102e-239
1.32462e-239
6.01758e-240
2.73015e-240
1.23745e-240
5.6051e-241
2.53799e-241
1.14917e-241
5.20496e-242
2.3592e-242
1.07067e-242
4.86859e-243
2.2206e-243
1.01758e-243
4.69759e-244
2.19563e-244
1.05015e-244
5.27718e-245
2.97526e-245
2.13176e-245
2.14704e-245
2.85476e-245
4.34313e-245
6.89443e-245
1.09794e-244
1.72723e-244
2.66619e-244
4.02295e-244
5.91611e-244
8.45534e-244
1.17075e-243
1.56465e-243
2.00908e-243
2.46384e-243
2.86255e-243
3.11415e-243
7.13346e-228
6.55872e-228
5.64735e-228
4.60738e-228
3.59028e-228
2.68817e-228
1.94274e-228
1.3601e-228
9.25186e-229
6.13038e-229
3.96537e-229
2.50858e-229
1.55462e-229
9.45132e-230
5.64387e-230
3.31409e-230
1.91553e-230
1.09078e-230
6.12442e-231
3.393e-231
1.85603e-231
1.00306e-231
5.35861e-232
2.83128e-232
1.48022e-232
7.66083e-233
3.92662e-233
1.99404e-233
1.00369e-233
5.00939e-234
2.48008e-234
1.21847e-234
5.94307e-235
2.87893e-235
1.38566e-235
6.62943e-236
3.15411e-236
1.49298e-236
7.03402e-237
3.30008e-237
1.54248e-237
7.18605e-238
3.33845e-238
1.54736e-238
7.15873e-239
3.30744e-239
1.52676e-239
7.04518e-240
3.25146e-240
1.50163e-240
6.94378e-241
3.21698e-241
1.49425e-241
6.96413e-242
3.25982e-242
1.53427e-242
7.2714e-243
3.47644e-243
1.6808e-243
8.24717e-244
4.13187e-244
2.14107e-244
1.18376e-244
7.49406e-245
6.06434e-245
6.63243e-245
9.05943e-245
1.37268e-244
2.14547e-244
3.34949e-244
5.15331e-244
7.76367e-244
1.14081e-243
1.62973e-243
2.25595e-243
3.01446e-243
3.87024e-243
4.74591e-243
5.51365e-243
5.99811e-243
1.36727e-227
1.25712e-227
1.08246e-227
8.83156e-228
6.88226e-228
5.1533e-228
3.72456e-228
2.6078e-228
1.77414e-228
1.17576e-228
7.60691e-229
4.81366e-229
2.98423e-229
1.81513e-229
1.08458e-229
6.37366e-230
3.68758e-230
2.10245e-230
1.18225e-230
6.56185e-231
3.59734e-231
1.94919e-231
1.04448e-231
5.53803e-232
2.90694e-232
1.51129e-232
7.78535e-233
3.97569e-233
2.01337e-233
1.01154e-233
5.04381e-234
2.49699e-234
1.22779e-234
5.99858e-235
2.91316e-235
1.40685e-235
6.75891e-236
3.23176e-236
1.53859e-236
7.29669e-237
3.44863e-237
1.62514e-237
7.63961e-238
3.58429e-238
1.67923e-238
7.86002e-239
3.67773e-239
1.72118e-239
8.0616e-240
3.78131e-240
1.7774e-240
8.3785e-241
3.96408e-241
1.88412e-241
9.0057e-242
4.334e-242
2.10297e-242
1.03058e-242
5.11117e-243
2.57237e-243
1.31926e-243
6.95027e-244
3.83235e-244
2.31276e-244
1.66598e-244
1.57029e-244
1.92257e-244
2.75572e-244
4.20578e-244
6.50188e-244
9.96191e-244
1.49802e-243
2.19926e-243
3.14033e-243
4.34586e-243
5.80613e-243
7.45368e-243
9.13952e-243
1.06176e-242
1.15502e-242
2.62015e-227
2.4091e-227
2.07443e-227
1.69252e-227
1.31899e-227
9.87672e-228
7.13876e-228
4.9986e-228
3.40092e-228
2.25408e-228
1.45852e-228
9.23105e-229
5.724e-229
3.48252e-229
2.08161e-229
1.22384e-229
7.08484e-230
4.04235e-230
2.27519e-230
1.26425e-230
6.94057e-231
3.76707e-231
2.02268e-231
1.07502e-231
5.65856e-232
2.95126e-232
1.52589e-232
7.82428e-233
3.98061e-233
2.01007e-233
1.00786e-233
5.01966e-234
2.48429e-234
1.22221e-234
5.97961e-235
2.91036e-235
1.40975e-235
6.79883e-236
3.26593e-236
1.56332e-236
7.46025e-237
3.55079e-237
1.68644e-237
7.99669e-238
3.78764e-238
1.79301e-238
8.48786e-239
4.02044e-239
1.9067e-239
9.05975e-240
4.31605e-240
2.06315e-240
9.90408e-241
4.77909e-241
2.32046e-241
1.13503e-241
5.60038e-242
2.79169e-242
1.40841e-242
7.2073e-243
3.75303e-243
2.00008e-243
1.1049e-243
6.52544e-244
4.40243e-244
3.72877e-244
4.12976e-244
5.57411e-244
8.27233e-244
1.26372e-243
1.92648e-243
2.89051e-243
4.2392e-243
6.05003e-243
8.37021e-243
1.11809e-242
1.43521e-242
1.75971e-242
2.04421e-242
2.22373e-242
5.02024e-227
4.6159e-227
3.97473e-227
3.24303e-227
2.52738e-227
1.89259e-227
1.36799e-227
9.57917e-228
6.51775e-228
4.32015e-228
2.79562e-228
1.76954e-228
1.09739e-228
6.67768e-229
3.99228e-229
2.34781e-229
1.35962e-229
7.76088e-230
4.37055e-230
2.43027e-230
1.33535e-230
7.25558e-231
3.90091e-231
2.07655e-231
1.09508e-231
5.72411e-232
2.96716e-232
1.52596e-232
7.78946e-233
3.94831e-233
1.98805e-233
9.94774e-234
4.9484e-234
2.448e-234
1.20483e-234
5.9016e-235
2.87813e-235
1.39804e-235
6.76664e-236
3.26474e-236
1.57086e-236
7.54114e-237
3.61366e-237
1.72936e-237
8.26937e-238
3.95316e-238
1.89038e-238
9.04778e-239
4.33714e-239
2.08365e-239
1.00397e-239
4.8555e-240
2.35899e-240
1.15239e-240
5.66618e-241
2.80729e-241
1.40323e-241
7.08627e-242
3.62117e-242
1.8761e-242
9.88052e-243
5.31318e-243
2.94517e-243
1.7217e-243
1.11753e-243
8.77936e-244
8.92371e-244
1.13399e-243
1.63189e-243
2.45919e-243
3.72705e-243
5.57778e-243
8.17065e-243
1.16541e-242
1.61184e-242
2.15271e-242
2.76299e-242
3.38747e-242
3.93498e-242
4.28046e-242
9.61725e-227
8.84274e-227
7.61454e-227
6.21293e-227
4.84201e-227
3.62597e-227
2.62098e-227
1.83538e-227
1.24886e-227
8.27819e-228
5.35722e-228
3.39117e-228
2.10324e-228
1.27996e-228
7.65326e-229
4.50151e-229
2.60737e-229
1.48871e-229
8.38653e-230
4.66536e-230
2.56485e-230
1.39454e-230
7.5039e-231
3.9986e-231
2.11131e-231
1.10525e-231
5.73927e-232
2.95772e-232
1.51342e-232
7.69229e-233
3.8853e-233
1.95092e-233
9.7425e-234
4.8404e-234
2.39351e-234
1.1784e-234
5.77855e-235
2.82346e-235
1.37515e-235
6.6788e-236
3.23602e-236
1.56487e-236
7.55606e-237
3.64478e-237
1.75722e-237
8.47198e-238
4.08689e-238
1.97381e-238
9.54978e-239
4.63178e-239
2.25361e-239
1.10083e-239
5.40293e-240
2.66683e-240
1.32508e-240
6.6349e-241
3.35179e-241
1.71053e-241
8.83147e-242
4.6209e-242
2.45582e-242
1.33056e-242
7.40471e-243
4.30863e-243
2.73156e-243
2.03573e-243
1.92858e-243
2.31479e-243
3.22628e-243
4.79025e-243
7.21296e-243
1.07639e-242
1.57469e-242
2.24459e-242
3.1034e-242
4.144e-242
5.31821e-242
6.51976e-242
7.57322e-242
8.23797e-242
1.84208e-226
1.69374e-226
1.45851e-226
1.19007e-226
9.27491e-227
6.94575e-227
5.0208e-227
3.51599e-227
2.3925e-227
1.58596e-227
1.0264e-227
6.49753e-228
4.03007e-228
2.45274e-228
1.46669e-228
8.62772e-229
4.998e-229
2.85415e-229
1.60819e-229
8.94861e-230
4.92127e-230
2.67687e-230
1.44116e-230
7.68454e-231
4.06079e-231
2.12787e-231
1.10626e-231
5.70912e-232
2.92614e-232
1.49017e-232
7.54358e-233
3.79758e-233
1.90194e-233
9.48028e-234
4.70482e-234
2.32557e-234
1.14537e-234
5.6228e-235
2.75249e-235
1.3441e-235
6.55017e-236
3.18692e-236
1.54874e-236
7.52102e-237
3.65156e-237
1.7734e-237
8.61975e-238
4.19559e-238
2.04629e-238
1.00069e-238
4.91016e-239
2.41922e-239
1.19781e-239
5.96495e-240
2.99049e-240
1.51089e-240
7.70125e-241
3.96509e-241
2.06489e-241
1.08937e-241
5.83398e-242
3.1815e-242
1.77779e-242
1.03275e-242
6.45204e-243
4.63335e-243
4.14953e-243
4.72962e-243
6.38623e-243
9.33662e-243
1.3962e-242
2.07716e-242
3.03448e-242
4.32247e-242
5.9742e-242
7.97585e-242
1.02346e-241
1.25461e-241
1.45727e-241
1.58515e-241
3.52772e-226
3.24368e-226
2.79323e-226
2.27916e-226
1.77633e-226
1.33028e-226
9.61635e-227
6.7344e-227
4.58266e-227
3.0379e-227
1.96614e-227
1.24471e-227
7.72062e-228
4.6991e-228
2.81015e-228
1.65317e-228
9.57762e-229
5.46997e-229
3.08251e-229
1.71552e-229
9.43644e-230
5.13421e-230
2.76505e-230
1.47499e-230
7.79843e-231
4.08901e-231
2.1275e-231
1.09899e-231
5.63913e-232
2.87565e-232
1.45802e-232
7.35346e-233
3.69062e-233
1.84403e-233
9.17634e-234
4.54961e-234
2.24828e-234
1.10781e-234
5.4449e-235
2.67051e-235
1.30754e-235
6.39371e-236
3.12375e-236
1.52554e-236
7.45068e-237
3.64094e-237
1.78117e-237
8.7279e-238
4.28635e-238
2.11111e-238
1.04346e-238
5.17952e-239
2.584e-239
1.29672e-239
6.55149e-240
3.33576e-240
1.71343e-240
8.88908e-241
4.66352e-241
2.47784e-241
1.33577e-241
7.32659e-242
4.11057e-242
2.38797e-242
1.47823e-242
1.03401e-242
8.85995e-243
9.65141e-243
1.26438e-242
1.82014e-242
2.70263e-242
4.00805e-242
5.84673e-242
8.32251e-242
1.14986e-241
1.53481e-241
1.96925e-241
2.41382e-241
2.8036e-241
3.04957e-241
6.75479e-226
6.21096e-226
5.34852e-226
4.36426e-226
3.40149e-226
2.54742e-226
1.84152e-226
1.28967e-226
8.77633e-227
5.81813e-227
3.76566e-227
2.38402e-227
1.47882e-227
9.00113e-228
5.38313e-228
3.16701e-228
1.83492e-228
1.04804e-228
5.90662e-229
3.28759e-229
1.80864e-229
9.84218e-230
5.30169e-230
2.82889e-230
1.49616e-230
7.84821e-231
4.08548e-231
2.11174e-231
1.0844e-231
5.53491e-232
2.8094e-232
1.41873e-232
7.13118e-233
3.56933e-233
1.77973e-233
8.84387e-234
4.38152e-234
2.16508e-234
1.06748e-234
5.25365e-235
2.58196e-235
1.26767e-235
6.22043e-236
3.05198e-236
1.49793e-236
7.35807e-237
3.61925e-237
1.78358e-237
8.81114e-238
4.36623e-238
2.17169e-238
1.08494e-238
5.44826e-239
2.75233e-239
1.39993e-239
7.17599e-240
3.71073e-240
1.93782e-240
1.02322e-240
5.47035e-241
2.96617e-241
1.63533e-241
9.21066e-242
5.35609e-242
3.29676e-242
2.26324e-242
1.87359e-242
1.96348e-242
2.50149e-242
3.54748e-242
5.23064e-242
7.7325e-242
1.12632e-241
1.60212e-241
2.21273e-241
2.95292e-241
3.78832e-241
4.64323e-241
5.3928e-241
5.86579e-241
1.29318e-225
1.18908e-225
1.02398e-225
8.35557e-226
6.51244e-226
4.87737e-226
3.52594e-226
2.46939e-226
1.6805e-226
1.1141e-226
7.21102e-227
4.56543e-227
2.83207e-227
1.72387e-227
1.03101e-227
6.06595e-228
3.51472e-228
2.00761e-228
1.13154e-228
6.29861e-229
3.46545e-229
1.88604e-229
1.0161e-229
5.4227e-230
2.86863e-230
1.50516e-230
7.83793e-231
4.05301e-231
2.08232e-231
1.0635e-231
5.40209e-232
2.73045e-232
1.37389e-232
6.88517e-233
3.43801e-233
1.71125e-233
8.49407e-234
4.20622e-234
2.07883e-234
1.02583e-234
5.05633e-235
2.4905e-235
1.22634e-235
6.03952e-236
2.97618e-236
1.46822e-236
7.25456e-237
3.59213e-237
1.78343e-237
8.8834e-238
4.44219e-238
2.23153e-238
1.12695e-238
5.7259e-239
2.92937e-239
1.51037e-239
7.85582e-240
4.12617e-240
2.19102e-240
1.17776e-240
6.41898e-241
3.5554e-241
2.00987e-241
1.17055e-241
7.18033e-242
4.86365e-242
3.92021e-242
3.97709e-242
4.9415e-242
6.9099e-242
1.01199e-241
1.49141e-241
2.16929e-241
3.08354e-241
4.25722e-241
5.68023e-241
7.28636e-241
8.93007e-241
1.03712e-240
1.12807e-240
2.47536e-225
2.27611e-225
1.96011e-225
1.59946e-225
1.24666e-225
9.33689e-226
6.75e-226
4.7275e-226
3.21731e-226
2.13301e-226
1.38064e-226
8.74145e-227
5.42279e-227
3.30097e-227
1.97432e-227
1.16165e-227
6.73111e-228
3.84501e-228
2.16727e-228
1.20647e-228
6.63842e-229
3.61322e-229
1.94681e-229
1.0391e-229
5.49767e-230
2.88514e-230
1.50274e-230
7.77281e-231
3.99479e-231
2.04109e-231
1.03731e-231
5.24617e-232
2.64166e-232
1.325e-232
6.6229e-233
3.30043e-233
1.64047e-233
8.13634e-234
4.0284e-234
1.99187e-234
9.8401e-235
4.85883e-235
2.39908e-235
1.18503e-235
5.85855e-236
2.9002e-236
1.43833e-236
7.15e-237
3.56459e-237
1.78328e-237
8.95782e-238
4.52106e-238
2.29423e-238
1.17143e-238
6.02309e-239
3.12121e-239
1.63164e-239
8.61312e-240
4.59623e-240
2.48248e-240
1.35916e-240
7.55958e-241
4.28809e-241
2.50192e-241
1.53178e-241
1.02764e-241
8.11396e-242
8.01396e-242
9.74084e-242
1.34469e-241
1.95697e-241
2.87564e-241
4.17698e-241
5.93344e-241
8.1891e-241
1.09243e-240
1.40118e-240
1.71715e-240
1.99419e-240
2.16902e-240
4.73749e-225
4.35617e-225
3.75144e-225
3.06125e-225
2.38608e-225
1.7871e-225
1.292e-225
9.04905e-226
6.15854e-226
4.08313e-226
2.643e-226
1.67346e-226
1.03818e-226
6.31986e-227
3.78008e-227
2.22421e-227
1.28887e-227
7.36276e-228
4.1503e-228
2.31051e-228
1.2714e-228
6.92056e-229
3.72911e-229
1.99057e-229
1.05329e-229
5.52828e-230
2.87987e-230
1.48987e-230
7.65888e-231
3.91431e-231
1.98997e-231
1.00684e-231
5.0724e-232
2.54572e-232
1.27336e-232
6.35097e-233
3.15984e-233
1.56899e-233
7.77846e-234
3.85188e-234
1.9061e-234
9.42976e-235
4.66583e-235
2.31007e-235
1.14496e-235
5.68368e-236
2.82719e-236
1.40991e-236
7.05293e-237
3.5411e-237
1.78549e-237
9.04692e-238
4.6096e-238
2.36351e-238
1.22045e-238
6.35193e-239
3.33505e-239
1.76818e-239
9.47618e-240
5.13969e-240
2.82529e-240
1.57725e-240
8.97501e-241
5.24661e-241
3.20928e-241
2.1383e-241
1.66177e-241
1.60579e-241
1.91528e-241
2.61381e-241
3.7821e-241
5.54256e-241
8.04059e-241
1.14147e-240
1.57491e-240
2.10058e-240
2.69397e-240
3.30127e-240
3.83376e-240
4.16977e-240
9.06541e-225
8.33582e-225
7.17873e-225
5.85809e-225
4.56617e-225
3.42e-225
2.47259e-225
1.73183e-225
1.17867e-225
7.8149e-226
5.05875e-226
3.20315e-226
1.98724e-226
1.20977e-226
7.23627e-227
4.25802e-227
2.46752e-227
1.40965e-227
7.94643e-228
4.42407e-228
2.43456e-228
1.32527e-228
7.14162e-229
3.81242e-229
2.01746e-229
1.05899e-229
5.51726e-230
2.85468e-230
1.46772e-230
7.50268e-231
3.81514e-231
1.93085e-231
9.7308e-232
4.88566e-232
2.44501e-232
1.22018e-232
6.07507e-233
3.01898e-233
1.49811e-233
7.42675e-234
3.67972e-234
1.823e-234
9.03461e-235
4.48106e-235
2.22537e-235
1.10709e-235
5.51991e-236
2.75979e-236
1.38435e-236
6.9708e-237
3.52569e-237
1.79225e-237
9.16291e-238
4.71469e-238
2.44334e-238
1.27635e-238
6.72645e-239
3.57959e-239
1.92554e-239
1.04819e-239
5.78218e-240
3.23861e-240
1.84813e-240
1.08245e-240
6.61959e-241
4.3891e-241
3.36978e-241
3.19931e-241
3.7555e-241
5.07406e-241
7.30442e-241
1.06784e-240
1.54734e-240
2.19542e-240
3.0282e-240
4.0383e-240
5.17858e-240
6.34563e-240
7.3689e-240
8.01461e-240
1.73443e-224
1.59486e-224
1.3735e-224
1.12084e-224
8.73673e-225
6.54386e-225
4.7312e-225
3.31389e-225
2.25549e-225
1.49549e-225
9.68099e-226
6.13013e-226
3.80328e-226
2.31542e-226
1.38503e-226
8.15023e-227
4.72325e-227
2.69844e-227
1.52122e-227
8.4696e-228
4.66105e-228
2.53742e-228
1.36744e-228
7.30028e-229
3.86345e-229
2.02812e-229
1.05673e-229
5.46817e-230
2.81176e-230
1.43751e-230
7.31101e-231
3.70085e-231
1.86554e-231
9.36926e-232
4.69042e-232
2.34171e-232
1.16647e-232
5.80006e-233
2.88013e-233
1.42892e-233
7.08634e-234
3.51438e-234
1.74376e-234
8.66048e-235
4.30741e-235
2.14644e-235
1.07218e-235
5.37135e-236
2.70021e-236
1.36286e-236
6.91031e-237
3.52211e-237
1.80571e-237
9.31817e-238
4.8436e-238
2.53804e-238
1.34179e-238
7.1633e-239
3.86557e-239
2.11088e-239
1.168e-239
6.56087e-240
3.75358e-240
2.20253e-240
1.34716e-240
8.90184e-241
6.77149e-241
6.33905e-241
7.34307e-241
9.83645e-241
1.4097e-240
2.05644e-240
2.97682e-240
4.22152e-240
5.82132e-240
7.76198e-240
9.95287e-240
1.21952e-239
1.41613e-239
1.5402e-239
3.31786e-224
3.05088e-224
2.62747e-224
2.14418e-224
1.67138e-224
1.25191e-224
9.05152e-225
6.34017e-225
4.31537e-225
2.86139e-225
1.85237e-225
1.17299e-225
7.27776e-226
4.43083e-226
2.65053e-226
1.55978e-226
9.03965e-227
5.16466e-227
2.91167e-227
1.62119e-227
8.92227e-228
4.85742e-228
2.61786e-228
1.39766e-228
7.39713e-229
3.88339e-229
2.02354e-229
1.04719e-229
5.38519e-230
2.75348e-230
1.40055e-230
7.09066e-231
3.57491e-231
1.79578e-231
8.99218e-232
4.49068e-232
2.23769e-232
1.11311e-232
5.53002e-233
2.74517e-233
1.36229e-233
6.76124e-234
3.35773e-234
1.6693e-234
8.31185e-235
4.14716e-235
2.07448e-235
1.04088e-235
5.24145e-236
2.65037e-236
1.34653e-236
6.87774e-237
3.53403e-237
1.82803e-237
9.5257e-238
5.00427e-238
2.65258e-238
1.41991e-238
7.68299e-239
4.20671e-239
2.33377e-239
1.31421e-239
7.53582e-240
4.42945e-240
2.71042e-240
1.78679e-240
1.3497e-240
1.24952e-240
1.43182e-240
1.90424e-240
2.71862e-240
3.95856e-240
5.72518e-240
8.11549e-240
1.11884e-239
1.49164e-239
1.91252e-239
2.34329e-239
2.72099e-239
2.95933e-239
6.34583e-224
5.83526e-224
5.02547e-224
4.10118e-224
3.19694e-224
2.39464e-224
1.73142e-224
1.21281e-224
8.25515e-225
5.47392e-225
3.54376e-225
2.24412e-225
1.39241e-225
8.47759e-226
5.07151e-226
2.98459e-226
1.72979e-226
9.88331e-227
5.57214e-227
3.10266e-227
1.70764e-227
9.29711e-228
5.01085e-228
2.67541e-228
1.41604e-228
7.43446e-229
3.87417e-229
2.00504e-229
1.03117e-229
5.27288e-230
2.68231e-230
1.35813e-230
6.8482e-231
3.44056e-231
1.72313e-231
8.60705e-232
4.28993e-232
2.13459e-232
1.06084e-232
5.2683e-233
2.61562e-233
1.29889e-233
6.4546e-234
3.21126e-234
1.6003e-234
7.99219e-235
4.00209e-235
2.01044e-235
1.0137e-235
5.1332e-236
2.61201e-236
1.33639e-236
6.87924e-237
3.5652e-237
1.86153e-237
9.79995e-238
5.20587e-238
2.79286e-238
1.51459e-238
8.31163e-239
4.62135e-239
2.608e-239
1.49839e-239
8.821e-240
5.40075e-240
3.55472e-240
2.67107e-240
2.45143e-240
2.78465e-240
3.68149e-240
5.23917e-240
7.61679e-240
1.10077e-239
1.55976e-239
2.14994e-239
2.86597e-239
3.67439e-239
4.5018e-239
5.22728e-239
5.68507e-239
1.21353e-223
1.1159e-223
9.61053e-224
7.84309e-224
6.11395e-224
4.57973e-224
3.31141e-224
2.31963e-224
1.57893e-224
1.04701e-224
6.77847e-225
4.29269e-225
2.66359e-225
1.62177e-225
9.70224e-226
5.71002e-226
3.30952e-226
1.89101e-226
1.06618e-226
5.93696e-227
3.26774e-227
1.77918e-227
9.5897e-228
5.12043e-228
2.71029e-228
1.42303e-228
7.41598e-229
3.83831e-229
1.97414e-229
1.00955e-229
5.13596e-230
2.60073e-230
1.31151e-230
6.58983e-231
3.30081e-231
1.64901e-231
8.22049e-232
4.09122e-232
2.03375e-232
1.01028e-232
5.0176e-233
2.49268e-233
1.23927e-233
6.16883e-234
3.07608e-234
1.53732e-234
7.70425e-235
3.87365e-235
1.95511e-235
9.91122e-236
5.04938e-236
2.58682e-236
1.33348e-236
6.9213e-237
3.61969e-237
1.9088e-237
1.01576e-237
5.45931e-238
2.96613e-238
1.63078e-238
9.08419e-239
5.13584e-239
2.9557e-239
1.74241e-239
1.06749e-239
7.01894e-240
5.25363e-240
4.78938e-240
5.40282e-240
7.1086e-240
1.00898e-239
1.46497e-239
2.11582e-239
2.99711e-239
4.13044e-239
5.50555e-239
7.05809e-239
8.64711e-239
1.00404e-238
1.09195e-238
2.32028e-223
2.13363e-223
1.83759e-223
1.49967e-223
1.16907e-223
8.75726e-224
6.33218e-224
4.4358e-224
3.01947e-224
2.00232e-224
1.29637e-224
8.21001e-225
5.09447e-225
3.10197e-225
1.85583e-225
1.09225e-225
6.33092e-226
3.61755e-226
2.03973e-226
1.13586e-226
6.25213e-227
3.40426e-227
1.83497e-227
9.79834e-228
5.18663e-228
2.72337e-228
1.41934e-228
7.34653e-229
3.77874e-229
1.93252e-229
9.83219e-230
4.97916e-230
2.51113e-230
1.26187e-230
6.32127e-231
3.15835e-231
1.57468e-231
7.8382e-232
3.8971e-232
1.93633e-232
9.61923e-233
4.7801e-233
2.37729e-233
1.18383e-233
5.9058e-234
2.95305e-234
1.48078e-234
7.45023e-235
3.7631e-235
1.90925e-235
9.73581e-236
4.99274e-236
2.57654e-236
1.33891e-236
7.01109e-237
3.70217e-237
1.97289e-237
1.0619e-237
5.77819e-238
3.18173e-238
1.7751e-238
1.00509e-238
5.79258e-239
3.41887e-239
2.0959e-239
1.37724e-239
1.02792e-239
9.32312e-240
1.04605e-239
1.37104e-239
1.94191e-239
2.81655e-239
4.06576e-239
5.75773e-239
7.93383e-239
1.05743e-238
1.35554e-238
1.66067e-238
1.9282e-238
2.09701e-238
4.43568e-223
4.0789e-223
3.513e-223
2.86704e-223
2.23505e-223
1.67428e-223
1.21067e-223
8.48118e-224
5.77336e-224
3.82866e-224
2.47889e-224
1.56996e-224
9.74226e-225
5.9322e-225
3.54922e-225
2.08898e-225
1.21087e-225
6.91936e-226
3.90161e-226
2.17278e-226
1.19602e-226
6.51261e-227
3.51061e-227
1.87469e-227
9.92393e-228
5.21109e-228
2.71601e-228
1.40589e-228
7.23175e-229
3.69868e-229
1.88192e-229
9.53097e-230
4.80709e-230
2.4158e-230
1.21029e-230
6.04766e-231
3.01556e-231
1.50122e-231
7.46502e-232
3.70969e-232
1.84323e-232
9.16157e-233
4.55745e-233
2.27015e-233
1.13289e-233
5.66688e-234
2.84284e-234
1.43102e-234
7.23209e-235
3.67156e-235
1.87354e-235
9.61532e-236
4.96623e-236
2.58309e-236
1.35395e-236
7.15699e-237
3.81822e-237
2.05755e-237
1.12094e-237
6.18008e-238
3.45223e-238
1.95714e-238
1.12928e-238
6.672e-239
4.0927e-239
2.68844e-239
2.00245e-239
1.80924e-239
2.02153e-239
2.64168e-239
3.73534e-239
5.41315e-239
7.81075e-239
1.10588e-238
1.52365e-238
2.03059e-238
2.60295e-238
3.18875e-238
3.70238e-238
4.02648e-238
8.47835e-223
7.79645e-223
6.71489e-223
5.48028e-223
4.27234e-223
3.20049e-223
2.31433e-223
1.62133e-223
1.10371e-223
7.31963e-224
4.73933e-224
3.00167e-224
1.86273e-224
1.13429e-224
6.78671e-225
3.99465e-225
2.31559e-225
1.32327e-225
7.46183e-226
4.15563e-226
2.28761e-226
1.24571e-226
6.71533e-227
3.5862e-227
1.89851e-227
9.96965e-228
5.19645e-228
2.69e-228