/*--------------------------------*- C++ -*----------------------------------*\
  =========                 |
  \\      /  F ield         | OpenFOAM: The Open Source CFD Toolbox
   \\    /   O peration     | Website:  https://openfoam.org
    \\  /    A nd           | Version:  11
     \\/     M anipulation  |
\*---------------------------------------------------------------------------*/
FoamFile
{
    format      ascii;
    class       volScalarField;
    location    "1469";
    object      p;
}
// * * * * * * * * * * * * * * * * * * * * * * * * * * * * * * * * * * * * * //

dimensions      [0 2 -2 0 0 0 0];

internalField   nonuniform List<scalar> 
440320
(
3.0766
3.0339
3.00386
2.98661
2.97525
2.96693
2.96073
2.95608
2.95254
2.9498
2.94764
2.94592
2.94451
2.94335
2.94239
2.94157
2.94086
2.94026
2.93973
2.93927
2.93887
2.93851
2.93819
2.93791
2.93766
2.93744
2.93724
2.93706
2.9369
2.93676
2.93664
2.93653
2.93644
2.93636
2.93629
2.93624
2.9362
2.93616
2.93614
2.93613
2.93613
2.93614
2.93616
2.9362
2.93624
2.93629
2.93636
2.93644
2.93653
2.93664
2.93676
2.9369
2.93706
2.93724
2.93744
2.93766
2.93791
2.93819
2.93851
2.93887
2.93927
2.93973
2.94026
2.94086
2.94157
2.94239
2.94335
2.94451
2.94592
2.94764
2.9498
2.95254
2.95608
2.96073
2.96693
2.97525
2.98661
3.00386
3.0339
3.0766
2.97998
2.97754
2.97361
2.96916
2.96482
2.96085
2.95737
2.95437
2.95183
2.94968
2.94785
2.94631
2.94499
2.94387
2.9429
2.94207
2.94134
2.94071
2.94015
2.93966
2.93923
2.93884
2.9385
2.9382
2.93793
2.93769
2.93748
2.93728
2.93712
2.93697
2.93683
2.93672
2.93662
2.93653
2.93646
2.9364
2.93636
2.93632
2.9363
2.93629
2.93629
2.9363
2.93632
2.93636
2.9364
2.93646
2.93653
2.93662
2.93672
2.93683
2.93697
2.93712
2.93728
2.93748
2.93769
2.93793
2.9382
2.9385
2.93884
2.93923
2.93966
2.94015
2.94071
2.94134
2.94207
2.9429
2.94387
2.94499
2.94631
2.94785
2.94968
2.95183
2.95437
2.95737
2.96085
2.96482
2.96916
2.97361
2.97754
2.97998
2.95657
2.95866
2.95974
2.95905
2.95747
2.95559
2.95366
2.9518
2.95007
2.9485
2.94708
2.94582
2.94471
2.94373
2.94286
2.94209
2.9414
2.9408
2.94026
2.93978
2.93936
2.93898
2.93864
2.93833
2.93806
2.93782
2.9376
2.93741
2.93723
2.93708
2.93695
2.93683
2.93673
2.93664
2.93656
2.9365
2.93646
2.93642
2.9364
2.93638
2.93638
2.9364
2.93642
2.93646
2.9365
2.93656
2.93664
2.93673
2.93683
2.93695
2.93708
2.93723
2.93741
2.9376
2.93782
2.93806
2.93833
2.93864
2.93898
2.93936
2.93978
2.94026
2.9408
2.9414
2.94209
2.94286
2.94373
2.94471
2.94582
2.94708
2.9485
2.95007
2.9518
2.95366
2.95559
2.95747
2.95905
2.95974
2.95866
2.95657
2.94793
2.94988
2.95134
2.95169
2.95134
2.95062
2.94969
2.94867
2.94763
2.9466
2.94562
2.9447
2.94385
2.94307
2.94236
2.94171
2.94112
2.94059
2.94011
2.93968
2.93928
2.93893
2.93861
2.93832
2.93806
2.93783
2.93762
2.93743
2.93726
2.93711
2.93698
2.93687
2.93677
2.93668
2.93661
2.93655
2.9365
2.93646
2.93644
2.93643
2.93643
2.93644
2.93646
2.9365
2.93655
2.93661
2.93668
2.93677
2.93687
2.93698
2.93711
2.93726
2.93743
2.93762
2.93783
2.93806
2.93832
2.93861
2.93893
2.93928
2.93968
2.94011
2.94059
2.94112
2.94171
2.94236
2.94307
2.94385
2.9447
2.94562
2.9466
2.94763
2.94867
2.94969
2.95062
2.95134
2.95169
2.95134
2.94988
2.94793
2.94315
2.94464
2.94593
2.94658
2.94676
2.94663
2.94629
2.94581
2.94523
2.94462
2.94398
2.94335
2.94274
2.94216
2.94161
2.9411
2.94062
2.94018
2.93977
2.9394
2.93906
2.93874
2.93846
2.9382
2.93796
2.93774
2.93755
2.93737
2.93722
2.93708
2.93695
2.93684
2.93675
2.93666
2.93659
2.93654
2.93649
2.93646
2.93643
2.93642
2.93642
2.93643
2.93646
2.93649
2.93654
2.93659
2.93666
2.93675
2.93684
2.93695
2.93708
2.93722
2.93737
2.93755
2.93774
2.93796
2.9382
2.93846
2.93874
2.93906
2.9394
2.93977
2.94018
2.94062
2.9411
2.94161
2.94216
2.94274
2.94335
2.94398
2.94462
2.94523
2.94581
2.94629
2.94663
2.94676
2.94658
2.94593
2.94464
2.94315
2.94034
2.94144
2.94247
2.94312
2.94347
2.9436
2.94355
2.94337
2.94309
2.94275
2.94237
2.94197
2.94155
2.94114
2.94074
2.94035
2.93998
2.93963
2.9393
2.93899
2.93871
2.93844
2.93819
2.93797
2.93776
2.93757
2.9374
2.93724
2.9371
2.93697
2.93686
2.93675
2.93667
2.93659
2.93653
2.93647
2.93643
2.9364
2.93638
2.93637
2.93637
2.93638
2.9364
2.93643
2.93647
2.93653
2.93659
2.93667
2.93675
2.93686
2.93697
2.9371
2.93724
2.9374
2.93757
2.93776
2.93797
2.93819
2.93844
2.93871
2.93899
2.9393
2.93963
2.93998
2.94035
2.94074
2.94114
2.94155
2.94197
2.94237
2.94275
2.94309
2.94337
2.94355
2.9436
2.94347
2.94312
2.94247
2.94144
2.94034
2.93849
2.9393
2.9401
2.94067
2.94105
2.94127
2.94137
2.94135
2.94125
2.94109
2.94088
2.94064
2.94037
2.94009
2.93981
2.93953
2.93926
2.93899
2.93874
2.93849
2.93826
2.93805
2.93784
2.93766
2.93748
2.93732
2.93717
2.93703
2.93691
2.9368
2.9367
2.93661
2.93653
2.93646
2.9364
2.93636
2.93632
2.93629
2.93627
2.93626
2.93626
2.93627
2.93629
2.93632
2.93636
2.9364
2.93646
2.93653
2.93661
2.9367
2.9368
2.93691
2.93703
2.93717
2.93732
2.93748
2.93766
2.93784
2.93805
2.93826
2.93849
2.93874
2.93899
2.93926
2.93953
2.93981
2.94009
2.94037
2.94064
2.94088
2.94109
2.94125
2.94135
2.94137
2.94127
2.94105
2.94067
2.9401
2.9393
2.93849
2.93714
2.93776
2.93839
2.93887
2.93922
2.93947
2.93962
2.9397
2.9397
2.93964
2.93955
2.93941
2.93926
2.93908
2.9389
2.9387
2.93851
2.93832
2.93813
2.93794
2.93776
2.93759
2.93743
2.93728
2.93714
2.93701
2.93688
2.93677
2.93666
2.93657
2.93648
2.93641
2.93634
2.93628
2.93623
2.93619
2.93616
2.93613
2.93612
2.93611
2.93611
2.93612
2.93613
2.93616
2.93619
2.93623
2.93628
2.93634
2.93641
2.93648
2.93657
2.93666
2.93677
2.93688
2.93701
2.93714
2.93728
2.93743
2.93759
2.93776
2.93794
2.93813
2.93832
2.93851
2.9387
2.9389
2.93908
2.93926
2.93941
2.93955
2.93964
2.9397
2.9397
2.93962
2.93947
2.93922
2.93887
2.93839
2.93776
2.93714
2.93612
2.9366
2.9371
2.9375
2.93781
2.93805
2.93822
2.93833
2.93839
2.9384
2.93837
2.93832
2.93823
2.93813
2.93802
2.93789
2.93776
2.93763
2.93749
2.93736
2.93723
2.9371
2.93698
2.93686
2.93675
2.93664
2.93655
2.93645
2.93637
2.93629
2.93622
2.93616
2.93611
2.93606
2.93602
2.93598
2.93595
2.93593
2.93592
2.93591
2.93591
2.93592
2.93593
2.93595
2.93598
2.93602
2.93606
2.93611
2.93616
2.93622
2.93629
2.93637
2.93645
2.93655
2.93664
2.93675
2.93686
2.93698
2.9371
2.93723
2.93736
2.93749
2.93763
2.93776
2.93789
2.93802
2.93813
2.93823
2.93832
2.93837
2.9384
2.93839
2.93833
2.93822
2.93805
2.93781
2.9375
2.9371
2.9366
2.93612
2.93529
2.93568
2.93608
2.93641
2.93668
2.9369
2.93707
2.9372
2.93728
2.93733
2.93735
2.93734
2.93731
2.93726
2.93719
2.93712
2.93704
2.93695
2.93686
2.93677
2.93668
2.93659
2.9365
2.93641
2.93633
2.93625
2.93617
2.9361
2.93604
2.93598
2.93592
2.93587
2.93583
2.93579
2.93576
2.93573
2.93571
2.93569
2.93568
2.93567
2.93567
2.93568
2.93569
2.93571
2.93573
2.93576
2.93579
2.93583
2.93587
2.93592
2.93598
2.93604
2.9361
2.93617
2.93625
2.93633
2.93641
2.9365
2.93659
2.93668
2.93677
2.93686
2.93695
2.93704
2.93712
2.93719
2.93726
2.93731
2.93734
2.93735
2.93733
2.93728
2.9372
2.93707
2.9369
2.93668
2.93641
2.93608
2.93568
2.93529
2.93461
2.93492
2.93525
2.93553
2.93576
2.93595
2.93612
2.93624
2.93634
2.9364
2.93645
2.93647
2.93647
2.93646
2.93643
2.93639
2.93635
2.9363
2.93624
2.93618
2.93612
2.93606
2.936
2.93594
2.93588
2.93583
2.93577
2.93572
2.93567
2.93563
2.93559
2.93555
2.93552
2.93549
2.93546
2.93544
2.93543
2.93541
2.9354
2.9354
2.9354
2.9354
2.93541
2.93543
2.93544
2.93546
2.93549
2.93552
2.93555
2.93559
2.93563
2.93567
2.93572
2.93577
2.93583
2.93588
2.93594
2.936
2.93606
2.93612
2.93618
2.93624
2.9363
2.93635
2.93639
2.93643
2.93646
2.93647
2.93647
2.93645
2.9364
2.93634
2.93624
2.93612
2.93595
2.93576
2.93553
2.93525
2.93492
2.93461
2.93403
2.93429
2.93455
2.93479
2.93499
2.93516
2.9353
2.93543
2.93552
2.9356
2.93565
2.93569
2.93572
2.93573
2.93572
2.93571
2.9357
2.93567
2.93564
2.93561
2.93558
2.93554
2.9355
2.93546
2.93543
2.93539
2.93535
2.93532
2.93529
2.93526
2.93523
2.9352
2.93518
2.93516
2.93514
2.93513
2.93511
2.9351
2.9351
2.9351
2.9351
2.9351
2.9351
2.93511
2.93513
2.93514
2.93516
2.93518
2.9352
2.93523
2.93526
2.93529
2.93532
2.93535
2.93539
2.93543
2.93546
2.9355
2.93554
2.93558
2.93561
2.93564
2.93567
2.9357
2.93571
2.93572
2.93573
2.93572
2.93569
2.93565
2.9356
2.93552
2.93543
2.9353
2.93516
2.93499
2.93479
2.93455
2.93429
2.93403
2.93353
2.93373
2.93396
2.93415
2.93432
2.93447
2.93461
2.93472
2.93481
2.93489
2.93495
2.935
2.93503
2.93506
2.93508
2.93508
2.93508
2.93508
2.93507
2.93506
2.93504
2.93503
2.93501
2.93499
2.93497
2.93494
2.93492
2.9349
2.93488
2.93487
2.93485
2.93483
2.93482
2.93481
2.93479
2.93478
2.93478
2.93477
2.93477
2.93477
2.93477
2.93477
2.93477
2.93478
2.93478
2.93479
2.93481
2.93482
2.93483
2.93485
2.93487
2.93488
2.9349
2.93492
2.93494
2.93497
2.93499
2.93501
2.93503
2.93504
2.93506
2.93507
2.93508
2.93508
2.93508
2.93508
2.93506
2.93503
2.935
2.93495
2.93489
2.93481
2.93472
2.93461
2.93447
2.93432
2.93415
2.93396
2.93373
2.93353
2.93307
2.93325
2.93343
2.9336
2.93374
2.93388
2.93399
2.93409
2.93418
2.93426
2.93432
2.93437
2.93442
2.93445
2.93448
2.9345
2.93451
2.93452
2.93453
2.93453
2.93453
2.93452
2.93452
2.93451
2.93451
2.9345
2.93449
2.93448
2.93447
2.93446
2.93446
2.93445
2.93444
2.93444
2.93443
2.93443
2.93442
2.93442
2.93442
2.93442
2.93442
2.93442
2.93442
2.93442
2.93443
2.93443
2.93444
2.93444
2.93445
2.93446
2.93446
2.93447
2.93448
2.93449
2.9345
2.93451
2.93451
2.93452
2.93452
2.93453
2.93453
2.93453
2.93452
2.93451
2.9345
2.93448
2.93445
2.93442
2.93437
2.93432
2.93426
2.93418
2.93409
2.93399
2.93388
2.93374
2.9336
2.93343
2.93325
2.93307
2.93266
2.93281
2.93296
2.9331
2.93323
2.93334
2.93345
2.93354
2.93362
2.93369
2.93375
2.93381
2.93385
2.93389
2.93392
2.93395
2.93397
2.93399
2.93401
2.93402
2.93403
2.93404
2.93404
2.93405
2.93405
2.93405
2.93405
2.93406
2.93406
2.93406
2.93406
2.93405
2.93405
2.93405
2.93405
2.93405
2.93405
2.93405
2.93405
2.93405
2.93405
2.93405
2.93405
2.93405
2.93405
2.93405
2.93405
2.93405
2.93405
2.93406
2.93406
2.93406
2.93406
2.93405
2.93405
2.93405
2.93405
2.93404
2.93404
2.93403
2.93402
2.93401
2.93399
2.93397
2.93395
2.93392
2.93389
2.93385
2.93381
2.93375
2.93369
2.93362
2.93354
2.93345
2.93334
2.93323
2.9331
2.93296
2.93281
2.93266
2.93228
2.9324
2.93254
2.93265
2.93276
2.93286
2.93295
2.93303
2.93311
2.93317
2.93323
2.93328
2.93333
2.93337
2.93341
2.93344
2.93347
2.93349
2.93352
2.93353
2.93355
2.93357
2.93358
2.93359
2.9336
2.93361
2.93362
2.93363
2.93364
2.93364
2.93365
2.93365
2.93366
2.93366
2.93367
2.93367
2.93367
2.93367
2.93367
2.93367
2.93367
2.93367
2.93367
2.93367
2.93367
2.93367
2.93366
2.93366
2.93365
2.93365
2.93364
2.93364
2.93363
2.93362
2.93361
2.9336
2.93359
2.93358
2.93357
2.93355
2.93353
2.93352
2.93349
2.93347
2.93344
2.93341
2.93337
2.93333
2.93328
2.93323
2.93317
2.93311
2.93303
2.93295
2.93286
2.93276
2.93265
2.93254
2.9324
2.93228
2.93193
2.93203
2.93214
2.93224
2.93233
2.93242
2.9325
2.93257
2.93264
2.9327
2.93275
2.9328
2.93285
2.93289
2.93293
2.93296
2.93299
2.93302
2.93305
2.93307
2.93309
2.93311
2.93313
2.93315
2.93317
2.93318
2.9332
2.93321
2.93322
2.93323
2.93324
2.93325
2.93326
2.93327
2.93327
2.93328
2.93328
2.93329
2.93329
2.93329
2.93329
2.93329
2.93329
2.93328
2.93328
2.93327
2.93327
2.93326
2.93325
2.93324
2.93323
2.93322
2.93321
2.9332
2.93318
2.93317
2.93315
2.93313
2.93311
2.93309
2.93307
2.93305
2.93302
2.93299
2.93296
2.93293
2.93289
2.93285
2.9328
2.93275
2.9327
2.93264
2.93257
2.9325
2.93242
2.93233
2.93224
2.93214
2.93203
2.93193
2.93159
2.93168
2.93177
2.93186
2.93194
2.93201
2.93208
2.93214
2.9322
2.93226
2.93231
2.93236
2.9324
2.93244
2.93248
2.93251
2.93254
2.93257
2.9326
2.93263
2.93265
2.93268
2.9327
2.93272
2.93274
2.93276
2.93278
2.9328
2.93281
2.93283
2.93284
2.93285
2.93286
2.93287
2.93288
2.93289
2.93289
2.9329
2.9329
2.9329
2.9329
2.9329
2.9329
2.93289
2.93289
2.93288
2.93287
2.93286
2.93285
2.93284
2.93283
2.93281
2.9328
2.93278
2.93276
2.93274
2.93272
2.9327
2.93268
2.93265
2.93263
2.9326
2.93257
2.93254
2.93251
2.93248
2.93244
2.9324
2.93236
2.93231
2.93226
2.9322
2.93214
2.93208
2.93201
2.93194
2.93186
2.93177
2.93168
2.93159
2.93127
2.93134
2.93142
2.93149
2.93156
2.93163
2.93169
2.93174
2.9318
2.93185
2.93189
2.93194
2.93198
2.93201
2.93205
2.93208
2.93212
2.93215
2.93218
2.9322
2.93223
2.93226
2.93228
2.93231
2.93233
2.93235
2.93237
2.93239
2.93241
2.93242
2.93244
2.93245
2.93247
2.93248
2.93249
2.9325
2.9325
2.93251
2.93251
2.93251
2.93251
2.93251
2.93251
2.9325
2.9325
2.93249
2.93248
2.93247
2.93245
2.93244
2.93242
2.93241
2.93239
2.93237
2.93235
2.93233
2.93231
2.93228
2.93226
2.93223
2.9322
2.93218
2.93215
2.93212
2.93208
2.93205
2.93201
2.93198
2.93194
2.93189
2.93185
2.9318
2.93174
2.93169
2.93163
2.93156
2.93149
2.93142
2.93134
2.93127
2.93095
2.93102
2.93108
2.93115
2.93121
2.93126
2.93132
2.93137
2.93141
2.93146
2.9315
2.93154
2.93157
2.93161
2.93164
2.93168
2.93171
2.93174
2.93177
2.9318
2.93182
2.93185
2.93188
2.9319
2.93192
2.93195
2.93197
2.93199
2.93201
2.93203
2.93204
2.93206
2.93207
2.93209
2.9321
2.93211
2.93211
2.93212
2.93212
2.93212
2.93212
2.93212
2.93212
2.93211
2.93211
2.9321
2.93209
2.93207
2.93206
2.93204
2.93203
2.93201
2.93199
2.93197
2.93195
2.93192
2.9319
2.93188
2.93185
2.93182
2.9318
2.93177
2.93174
2.93171
2.93168
2.93164
2.93161
2.93157
2.93154
2.9315
2.93146
2.93141
2.93137
2.93132
2.93126
2.93121
2.93115
2.93108
2.93102
2.93095
2.93065
2.9307
2.93076
2.93082
2.93087
2.93091
2.93096
2.931
2.93105
2.93108
2.93112
2.93116
2.93119
2.93123
2.93126
2.93129
2.93132
2.93135
2.93138
2.9314
2.93143
2.93146
2.93148
2.93151
2.93153
2.93156
2.93158
2.9316
2.93162
2.93164
2.93166
2.93167
2.93169
2.9317
2.93171
2.93172
2.93173
2.93173
2.93174
2.93174
2.93174
2.93174
2.93173
2.93173
2.93172
2.93171
2.9317
2.93169
2.93167
2.93166
2.93164
2.93162
2.9316
2.93158
2.93156
2.93153
2.93151
2.93148
2.93146
2.93143
2.9314
2.93138
2.93135
2.93132
2.93129
2.93126
2.93123
2.93119
2.93116
2.93112
2.93108
2.93105
2.931
2.93096
2.93091
2.93087
2.93082
2.93076
2.9307
2.93065
2.93035
2.9304
2.93045
2.93049
2.93054
2.93058
2.93062
2.93066
2.93069
2.93073
2.93076
2.93079
2.93083
2.93086
2.93089
2.93091
2.93094
2.93097
2.931
2.93102
2.93105
2.93108
2.9311
2.93113
2.93115
2.93117
2.9312
2.93122
2.93124
2.93126
2.93127
2.93129
2.9313
2.93132
2.93133
2.93134
2.93135
2.93135
2.93136
2.93136
2.93136
2.93136
2.93135
2.93135
2.93134
2.93133
2.93132
2.9313
2.93129
2.93127
2.93126
2.93124
2.93122
2.9312
2.93117
2.93115
2.93113
2.9311
2.93108
2.93105
2.93102
2.931
2.93097
2.93094
2.93091
2.93089
2.93086
2.93083
2.93079
2.93076
2.93073
2.93069
2.93066
2.93062
2.93058
2.93054
2.93049
2.93045
2.9304
2.93035
2.93006
2.9301
2.93014
2.93018
2.93022
2.93025
2.93029
2.93032
2.93035
2.93039
2.93042
2.93044
2.93047
2.9305
2.93053
2.93055
2.93058
2.93061
2.93063
2.93066
2.93068
2.93071
2.93073
2.93075
2.93078
2.9308
2.93082
2.93084
2.93086
2.93088
2.9309
2.93091
2.93093
2.93094
2.93095
2.93096
2.93097
2.93098
2.93098
2.93098
2.93098
2.93098
2.93098
2.93097
2.93096
2.93095
2.93094
2.93093
2.93091
2.9309
2.93088
2.93086
2.93084
2.93082
2.9308
2.93078
2.93075
2.93073
2.93071
2.93068
2.93066
2.93063
2.93061
2.93058
2.93055
2.93053
2.9305
2.93047
2.93044
2.93042
2.93039
2.93035
2.93032
2.93029
2.93025
2.93022
2.93018
2.93014
2.9301
2.93006
2.92977
2.9298
2.92984
2.92987
2.92991
2.92994
2.92997
2.93
2.93002
2.93005
2.93008
2.9301
2.93013
2.93015
2.93018
2.9302
2.93023
2.93025
2.93028
2.9303
2.93032
2.93035
2.93037
2.93039
2.93041
2.93044
2.93046
2.93048
2.9305
2.93051
2.93053
2.93055
2.93056
2.93057
2.93058
2.93059
2.9306
2.93061
2.93061
2.93061
2.93061
2.93061
2.93061
2.9306
2.93059
2.93058
2.93057
2.93056
2.93055
2.93053
2.93051
2.9305
2.93048
2.93046
2.93044
2.93041
2.93039
2.93037
2.93035
2.93032
2.9303
2.93028
2.93025
2.93023
2.9302
2.93018
2.93015
2.93013
2.9301
2.93008
2.93005
2.93002
2.93
2.92997
2.92994
2.92991
2.92987
2.92984
2.9298
2.92977
2.92948
2.92951
2.92954
2.92957
2.9296
2.92963
2.92965
2.92968
2.9297
2.92973
2.92975
2.92977
2.9298
2.92982
2.92984
2.92986
2.92989
2.92991
2.92993
2.92995
2.92997
2.92999
2.93002
2.93004
2.93006
2.93008
2.9301
2.93012
2.93014
2.93015
2.93017
2.93018
2.9302
2.93021
2.93022
2.93023
2.93024
2.93024
2.93025
2.93025
2.93025
2.93025
2.93024
2.93024
2.93023
2.93022
2.93021
2.9302
2.93018
2.93017
2.93015
2.93014
2.93012
2.9301
2.93008
2.93006
2.93004
2.93002
2.92999
2.92997
2.92995
2.92993
2.92991
2.92989
2.92986
2.92984
2.92982
2.9298
2.92977
2.92975
2.92973
2.9297
2.92968
2.92965
2.92963
2.9296
2.92957
2.92954
2.92951
2.92948
2.9292
2.92922
2.92925
2.92927
2.9293
2.92932
2.92934
2.92937
2.92939
2.92941
2.92943
2.92945
2.92947
2.92949
2.92951
2.92953
2.92955
2.92957
2.92959
2.92961
2.92963
2.92965
2.92967
2.92969
2.92971
2.92973
2.92975
2.92977
2.92978
2.9298
2.92981
2.92983
2.92984
2.92985
2.92986
2.92987
2.92988
2.92988
2.92989
2.92989
2.92989
2.92989
2.92988
2.92988
2.92987
2.92986
2.92985
2.92984
2.92983
2.92981
2.9298
2.92978
2.92977
2.92975
2.92973
2.92971
2.92969
2.92967
2.92965
2.92963
2.92961
2.92959
2.92957
2.92955
2.92953
2.92951
2.92949
2.92947
2.92945
2.92943
2.92941
2.92939
2.92937
2.92934
2.92932
2.9293
2.92927
2.92925
2.92922
2.9292
2.92892
2.92894
2.92896
2.92898
2.929
2.92902
2.92904
2.92906
2.92908
2.9291
2.92911
2.92913
2.92915
2.92917
2.92919
2.9292
2.92922
2.92924
2.92926
2.92928
2.9293
2.92931
2.92933
2.92935
2.92937
2.92939
2.9294
2.92942
2.92944
2.92945
2.92947
2.92948
2.92949
2.9295
2.92951
2.92952
2.92952
2.92953
2.92953
2.92953
2.92953
2.92953
2.92953
2.92952
2.92952
2.92951
2.9295
2.92949
2.92948
2.92947
2.92945
2.92944
2.92942
2.9294
2.92939
2.92937
2.92935
2.92933
2.92931
2.9293
2.92928
2.92926
2.92924
2.92922
2.9292
2.92919
2.92917
2.92915
2.92913
2.92911
2.9291
2.92908
2.92906
2.92904
2.92902
2.929
2.92898
2.92896
2.92894
2.92892
2.92863
2.92865
2.92867
2.92869
2.9287
2.92872
2.92874
2.92875
2.92877
2.92879
2.9288
2.92882
2.92884
2.92885
2.92887
2.92888
2.9289
2.92892
2.92893
2.92895
2.92897
2.92898
2.929
2.92902
2.92903
2.92905
2.92907
2.92908
2.9291
2.92911
2.92912
2.92913
2.92915
2.92916
2.92916
2.92917
2.92918
2.92918
2.92919
2.92919
2.92919
2.92919
2.92918
2.92918
2.92917
2.92916
2.92916
2.92915
2.92913
2.92912
2.92911
2.9291
2.92908
2.92907
2.92905
2.92903
2.92902
2.929
2.92898
2.92897
2.92895
2.92893
2.92892
2.9289
2.92888
2.92887
2.92885
2.92884
2.92882
2.9288
2.92879
2.92877
2.92875
2.92874
2.92872
2.9287
2.92869
2.92867
2.92865
2.92863
2.92835
2.92836
2.92838
2.9284
2.92841
2.92843
2.92844
2.92845
2.92847
2.92848
2.9285
2.92851
2.92852
2.92854
2.92855
2.92857
2.92858
2.9286
2.92861
2.92863
2.92864
2.92866
2.92867
2.92869
2.9287
2.92872
2.92873
2.92875
2.92876
2.92877
2.92878
2.9288
2.92881
2.92882
2.92882
2.92883
2.92884
2.92884
2.92884
2.92884
2.92884
2.92884
2.92884
2.92884
2.92883
2.92882
2.92882
2.92881
2.9288
2.92878
2.92877
2.92876
2.92875
2.92873
2.92872
2.9287
2.92869
2.92867
2.92866
2.92864
2.92863
2.92861
2.9286
2.92858
2.92857
2.92855
2.92854
2.92852
2.92851
2.9285
2.92848
2.92847
2.92845
2.92844
2.92843
2.92841
2.9284
2.92838
2.92836
2.92835
2.92807
2.92808
2.92809
2.92811
2.92812
2.92813
2.92814
2.92816
2.92817
2.92818
2.92819
2.92821
2.92822
2.92823
2.92824
2.92826
2.92827
2.92828
2.9283
2.92831
2.92832
2.92834
2.92835
2.92836
2.92838
2.92839
2.9284
2.92842
2.92843
2.92844
2.92845
2.92846
2.92847
2.92848
2.92849
2.92849
2.9285
2.9285
2.92851
2.92851
2.92851
2.92851
2.9285
2.9285
2.92849
2.92849
2.92848
2.92847
2.92846
2.92845
2.92844
2.92843
2.92842
2.9284
2.92839
2.92838
2.92836
2.92835
2.92834
2.92832
2.92831
2.9283
2.92828
2.92827
2.92826
2.92824
2.92823
2.92822
2.92821
2.92819
2.92818
2.92817
2.92816
2.92814
2.92813
2.92812
2.92811
2.92809
2.92808
2.92807
2.92778
2.92779
2.92781
2.92782
2.92783
2.92784
2.92785
2.92786
2.92787
2.92788
2.92789
2.9279
2.92791
2.92793
2.92794
2.92795
2.92796
2.92797
2.92798
2.928
2.92801
2.92802
2.92803
2.92805
2.92806
2.92807
2.92808
2.92809
2.9281
2.92811
2.92812
2.92813
2.92814
2.92815
2.92816
2.92816
2.92817
2.92817
2.92817
2.92817
2.92817
2.92817
2.92817
2.92817
2.92816
2.92816
2.92815
2.92814
2.92813
2.92812
2.92811
2.9281
2.92809
2.92808
2.92807
2.92806
2.92805
2.92803
2.92802
2.92801
2.928
2.92798
2.92797
2.92796
2.92795
2.92794
2.92793
2.92791
2.9279
2.92789
2.92788
2.92787
2.92786
2.92785
2.92784
2.92783
2.92782
2.92781
2.92779
2.92778
2.9275
2.92751
2.92752
2.92753
2.92754
2.92755
2.92756
2.92757
2.92757
2.92758
2.92759
2.9276
2.92761
2.92762
2.92763
2.92764
2.92765
2.92766
2.92767
2.92768
2.9277
2.92771
2.92772
2.92773
2.92774
2.92775
2.92776
2.92777
2.92778
2.92779
2.9278
2.92781
2.92782
2.92782
2.92783
2.92783
2.92784
2.92784
2.92784
2.92784
2.92784
2.92784
2.92784
2.92784
2.92783
2.92783
2.92782
2.92782
2.92781
2.9278
2.92779
2.92778
2.92777
2.92776
2.92775
2.92774
2.92773
2.92772
2.92771
2.9277
2.92768
2.92767
2.92766
2.92765
2.92764
2.92763
2.92762
2.92761
2.9276
2.92759
2.92758
2.92757
2.92757
2.92756
2.92755
2.92754
2.92753
2.92752
2.92751
2.9275
2.92722
2.92722
2.92723
2.92724
2.92725
2.92726
2.92726
2.92727
2.92728
2.92729
2.9273
2.9273
2.92731
2.92732
2.92733
2.92734
2.92735
2.92736
2.92737
2.92738
2.92739
2.9274
2.92741
2.92742
2.92743
2.92744
2.92745
2.92745
2.92746
2.92747
2.92748
2.92749
2.92749
2.9275
2.92751
2.92751
2.92751
2.92752
2.92752
2.92752
2.92752
2.92752
2.92752
2.92751
2.92751
2.92751
2.9275
2.92749
2.92749
2.92748
2.92747
2.92746
2.92745
2.92745
2.92744
2.92743
2.92742
2.92741
2.9274
2.92739
2.92738
2.92737
2.92736
2.92735
2.92734
2.92733
2.92732
2.92731
2.9273
2.9273
2.92729
2.92728
2.92727
2.92726
2.92726
2.92725
2.92724
2.92723
2.92722
2.92722
2.92693
2.92694
2.92695
2.92695
2.92696
2.92697
2.92697
2.92698
2.92699
2.92699
2.927
2.92701
2.92701
2.92702
2.92703
2.92704
2.92705
2.92705
2.92706
2.92707
2.92708
2.92709
2.9271
2.92711
2.92711
2.92712
2.92713
2.92714
2.92715
2.92716
2.92716
2.92717
2.92718
2.92718
2.92719
2.92719
2.92719
2.9272
2.9272
2.9272
2.9272
2.9272
2.9272
2.92719
2.92719
2.92719
2.92718
2.92718
2.92717
2.92716
2.92716
2.92715
2.92714
2.92713
2.92712
2.92711
2.92711
2.9271
2.92709
2.92708
2.92707
2.92706
2.92705
2.92705
2.92704
2.92703
2.92702
2.92701
2.92701
2.927
2.92699
2.92699
2.92698
2.92697
2.92697
2.92696
2.92695
2.92695
2.92694
2.92693
2.92665
2.92665
2.92666
2.92666
2.92667
2.92667
2.92668
2.92669
2.92669
2.9267
2.9267
2.92671
2.92672
2.92672
2.92673
2.92674
2.92674
2.92675
2.92676
2.92677
2.92677
2.92678
2.92679
2.9268
2.92681
2.92681
2.92682
2.92683
2.92684
2.92684
2.92685
2.92685
2.92686
2.92686
2.92687
2.92687
2.92688
2.92688
2.92688
2.92688
2.92688
2.92688
2.92688
2.92688
2.92687
2.92687
2.92686
2.92686
2.92685
2.92685
2.92684
2.92684
2.92683
2.92682
2.92681
2.92681
2.9268
2.92679
2.92678
2.92677
2.92677
2.92676
2.92675
2.92674
2.92674
2.92673
2.92672
2.92672
2.92671
2.9267
2.9267
2.92669
2.92669
2.92668
2.92667
2.92667
2.92666
2.92666
2.92665
2.92665
2.92636
2.92637
2.92637
2.92638
2.92638
2.92638
2.92639
2.92639
2.9264
2.9264
2.92641
2.92641
2.92642
2.92643
2.92643
2.92644
2.92644
2.92645
2.92646
2.92646
2.92647
2.92648
2.92648
2.92649
2.9265
2.92651
2.92651
2.92652
2.92653
2.92653
2.92654
2.92654
2.92655
2.92655
2.92656
2.92656
2.92656
2.92656
2.92656
2.92657
2.92657
2.92656
2.92656
2.92656
2.92656
2.92656
2.92655
2.92655
2.92654
2.92654
2.92653
2.92653
2.92652
2.92651
2.92651
2.9265
2.92649
2.92648
2.92648
2.92647
2.92646
2.92646
2.92645
2.92644
2.92644
2.92643
2.92643
2.92642
2.92641
2.92641
2.9264
2.9264
2.92639
2.92639
2.92638
2.92638
2.92638
2.92637
2.92637
2.92636
2.92608
2.92608
2.92608
2.92609
2.92609
2.92609
2.9261
2.9261
2.92611
2.92611
2.92612
2.92612
2.92613
2.92613
2.92614
2.92614
2.92615
2.92615
2.92616
2.92616
2.92617
2.92618
2.92618
2.92619
2.92619
2.9262
2.92621
2.92621
2.92622
2.92622
2.92623
2.92623
2.92624
2.92624
2.92624
2.92625
2.92625
2.92625
2.92625
2.92625
2.92625
2.92625
2.92625
2.92625
2.92625
2.92624
2.92624
2.92624
2.92623
2.92623
2.92622
2.92622
2.92621
2.92621
2.9262
2.92619
2.92619
2.92618
2.92618
2.92617
2.92616
2.92616
2.92615
2.92615
2.92614
2.92614
2.92613
2.92613
2.92612
2.92612
2.92611
2.92611
2.9261
2.9261
2.92609
2.92609
2.92609
2.92608
2.92608
2.92608
2.92579
2.92579
2.92579
2.9258
2.9258
2.9258
2.92581
2.92581
2.92581
2.92582
2.92582
2.92583
2.92583
2.92583
2.92584
2.92584
2.92585
2.92585
2.92586
2.92586
2.92587
2.92587
2.92588
2.92588
2.92589
2.9259
2.9259
2.92591
2.92591
2.92592
2.92592
2.92592
2.92593
2.92593
2.92593
2.92594
2.92594
2.92594
2.92594
2.92594
2.92594
2.92594
2.92594
2.92594
2.92594
2.92593
2.92593
2.92593
2.92592
2.92592
2.92592
2.92591
2.92591
2.9259
2.9259
2.92589
2.92588
2.92588
2.92587
2.92587
2.92586
2.92586
2.92585
2.92585
2.92584
2.92584
2.92583
2.92583
2.92583
2.92582
2.92582
2.92581
2.92581
2.92581
2.9258
2.9258
2.9258
2.92579
2.92579
2.92579
2.9255
2.9255
2.92551
2.92551
2.92551
2.92551
2.92552
2.92552
2.92552
2.92553
2.92553
2.92553
2.92554
2.92554
2.92554
2.92555
2.92555
2.92556
2.92556
2.92556
2.92557
2.92557
2.92558
2.92558
2.92559
2.92559
2.9256
2.9256
2.92561
2.92561
2.92561
2.92562
2.92562
2.92562
2.92563
2.92563
2.92563
2.92563
2.92563
2.92563
2.92563
2.92563
2.92563
2.92563
2.92563
2.92563
2.92562
2.92562
2.92562
2.92561
2.92561
2.92561
2.9256
2.9256
2.92559
2.92559
2.92558
2.92558
2.92557
2.92557
2.92556
2.92556
2.92556
2.92555
2.92555
2.92554
2.92554
2.92554
2.92553
2.92553
2.92553
2.92552
2.92552
2.92552
2.92551
2.92551
2.92551
2.92551
2.9255
2.9255
2.92521
2.92521
2.92522
2.92522
2.92522
2.92522
2.92522
2.92523
2.92523
2.92523
2.92524
2.92524
2.92524
2.92524
2.92525
2.92525
2.92526
2.92526
2.92526
2.92527
2.92527
2.92527
2.92528
2.92528
2.92529
2.92529
2.9253
2.9253
2.9253
2.92531
2.92531
2.92531
2.92532
2.92532
2.92532
2.92532
2.92532
2.92533
2.92533
2.92533
2.92533
2.92533
2.92533
2.92532
2.92532
2.92532
2.92532
2.92532
2.92531
2.92531
2.92531
2.9253
2.9253
2.9253
2.92529
2.92529
2.92528
2.92528
2.92527
2.92527
2.92527
2.92526
2.92526
2.92526
2.92525
2.92525
2.92524
2.92524
2.92524
2.92524
2.92523
2.92523
2.92523
2.92522
2.92522
2.92522
2.92522
2.92522
2.92521
2.92521
2.92492
2.92492
2.92493
2.92493
2.92493
2.92493
2.92493
2.92494
2.92494
2.92494
2.92494
2.92494
2.92495
2.92495
2.92495
2.92496
2.92496
2.92496
2.92497
2.92497
2.92497
2.92498
2.92498
2.92498
2.92499
2.92499
2.92499
2.925
2.925
2.925
2.92501
2.92501
2.92501
2.92502
2.92502
2.92502
2.92502
2.92502
2.92502
2.92502
2.92502
2.92502
2.92502
2.92502
2.92502
2.92502
2.92502
2.92501
2.92501
2.92501
2.925
2.925
2.925
2.92499
2.92499
2.92499
2.92498
2.92498
2.92498
2.92497
2.92497
2.92497
2.92496
2.92496
2.92496
2.92495
2.92495
2.92495
2.92494
2.92494
2.92494
2.92494
2.92494
2.92493
2.92493
2.92493
2.92493
2.92493
2.92492
2.92492
2.92463
2.92463
2.92464
2.92464
2.92464
2.92464
2.92464
2.92464
2.92465
2.92465
2.92465
2.92465
2.92465
2.92466
2.92466
2.92466
2.92466
2.92467
2.92467
2.92467
2.92468
2.92468
2.92468
2.92469
2.92469
2.92469
2.92469
2.9247
2.9247
2.9247
2.92471
2.92471
2.92471
2.92471
2.92471
2.92472
2.92472
2.92472
2.92472
2.92472
2.92472
2.92472
2.92472
2.92472
2.92472
2.92471
2.92471
2.92471
2.92471
2.92471
2.9247
2.9247
2.9247
2.92469
2.92469
2.92469
2.92469
2.92468
2.92468
2.92468
2.92467
2.92467
2.92467
2.92466
2.92466
2.92466
2.92466
2.92465
2.92465
2.92465
2.92465
2.92465
2.92464
2.92464
2.92464
2.92464
2.92464
2.92464
2.92463
2.92463
2.92434
2.92434
2.92434
2.92435
2.92435
2.92435
2.92435
2.92435
2.92435
2.92435
2.92436
2.92436
2.92436
2.92436
2.92436
2.92437
2.92437
2.92437
2.92437
2.92438
2.92438
2.92438
2.92438
2.92439
2.92439
2.92439
2.9244
2.9244
2.9244
2.9244
2.9244
2.92441
2.92441
2.92441
2.92441
2.92441
2.92441
2.92442
2.92442
2.92442
2.92442
2.92442
2.92442
2.92441
2.92441
2.92441
2.92441
2.92441
2.92441
2.9244
2.9244
2.9244
2.9244
2.9244
2.92439
2.92439
2.92439
2.92438
2.92438
2.92438
2.92438
2.92437
2.92437
2.92437
2.92437
2.92436
2.92436
2.92436
2.92436
2.92436
2.92435
2.92435
2.92435
2.92435
2.92435
2.92435
2.92435
2.92434
2.92434
2.92434
2.92405
2.92405
2.92405
2.92405
2.92406
2.92406
2.92406
2.92406
2.92406
2.92406
2.92406
2.92406
2.92407
2.92407
2.92407
2.92407
2.92407
2.92408
2.92408
2.92408
2.92408
2.92408
2.92409
2.92409
2.92409
2.92409
2.9241
2.9241
2.9241
2.9241
2.92411
2.92411
2.92411
2.92411
2.92411
2.92411
2.92411
2.92411
2.92411
2.92411
2.92411
2.92411
2.92411
2.92411
2.92411
2.92411
2.92411
2.92411
2.92411
2.92411
2.9241
2.9241
2.9241
2.9241
2.92409
2.92409
2.92409
2.92409
2.92408
2.92408
2.92408
2.92408
2.92408
2.92407
2.92407
2.92407
2.92407
2.92407
2.92406
2.92406
2.92406
2.92406
2.92406
2.92406
2.92406
2.92406
2.92405
2.92405
2.92405
2.92405
2.92376
2.92376
2.92376
2.92376
2.92376
2.92376
2.92377
2.92377
2.92377
2.92377
2.92377
2.92377
2.92377
2.92377
2.92378
2.92378
2.92378
2.92378
2.92378
2.92378
2.92379
2.92379
2.92379
2.92379
2.92379
2.9238
2.9238
2.9238
2.9238
2.9238
2.92381
2.92381
2.92381
2.92381
2.92381
2.92381
2.92381
2.92381
2.92381
2.92381
2.92381
2.92381
2.92381
2.92381
2.92381
2.92381
2.92381
2.92381
2.92381
2.92381
2.9238
2.9238
2.9238
2.9238
2.9238
2.92379
2.92379
2.92379
2.92379
2.92379
2.92378
2.92378
2.92378
2.92378
2.92378
2.92378
2.92377
2.92377
2.92377
2.92377
2.92377
2.92377
2.92377
2.92377
2.92376
2.92376
2.92376
2.92376
2.92376
2.92376
2.92347
2.92347
2.92347
2.92347
2.92347
2.92347
2.92347
2.92347
2.92347
2.92348
2.92348
2.92348
2.92348
2.92348
2.92348
2.92348
2.92348
2.92349
2.92349
2.92349
2.92349
2.92349
2.92349
2.9235
2.9235
2.9235
2.9235
2.9235
2.9235
2.92351
2.92351
2.92351
2.92351
2.92351
2.92351
2.92351
2.92351
2.92351
2.92351
2.92351
2.92351
2.92351
2.92351
2.92351
2.92351
2.92351
2.92351
2.92351
2.92351
2.92351
2.92351
2.9235
2.9235
2.9235
2.9235
2.9235
2.9235
2.92349
2.92349
2.92349
2.92349
2.92349
2.92349
2.92348
2.92348
2.92348
2.92348
2.92348
2.92348
2.92348
2.92348
2.92347
2.92347
2.92347
2.92347
2.92347
2.92347
2.92347
2.92347
2.92347
2.92318
2.92318
2.92318
2.92318
2.92318
2.92318
2.92318
2.92318
2.92318
2.92318
2.92318
2.92318
2.92318
2.92319
2.92319
2.92319
2.92319
2.92319
2.92319
2.92319
2.9232
2.9232
2.9232
2.9232
2.9232
2.9232
2.9232
2.92321
2.92321
2.92321
2.92321
2.92321
2.92321
2.92321
2.92321
2.92321
2.92322
2.92322
2.92322
2.92322