/*--------------------------------*- C++ -*----------------------------------*\
  =========                 |
  \\      /  F ield         | OpenFOAM: The Open Source CFD Toolbox
   \\    /   O peration     | Website:  https://openfoam.org
    \\  /    A nd           | Version:  11
     \\/     M anipulation  |
\*---------------------------------------------------------------------------*/
FoamFile
{
    format      ascii;
    class       volScalarField;
    location    "100";
    object      C;
}
// * * * * * * * * * * * * * * * * * * * * * * * * * * * * * * * * * * * * * //

dimensions      [0 0 0 1 0 0 0];

internalField   nonuniform List<scalar> 
427520
(
-3.3216e-312
-1.14827e-311
-5.70898e-313
-2.50397e-311
-3.31989e-311
-3.57676e-312
-3.1808e-311
-2.93204e-311
-2.09109e-311
3.49326e-312
3.04088e-311
1.43453e-311
2.61335e-312
-1.05876e-311
1.35774e-312
2.92144e-311
1.09478e-311
-7.6026e-312
-5.27474e-312
-5.96091e-312
3.36429e-311
8.9144e-312
2.38771e-312
-6.84114e-312
-2.77308e-311
2.87304e-311
6.78571e-312
2.47835e-311
2.17861e-312
-1.30169e-311
-2.58483e-312
3.82229e-312
4.70171e-312
-1.22462e-312
-1.75747e-311
-9.08506e-312
-8.20751e-312
-3.21406e-311
6.61722e-312
3.42297e-311
3.65197e-311
9.83129e-312
2.99462e-311
3.21141e-311
1.93392e-312
-2.98948e-312
-5.35734e-312
-3.30421e-311
-4.55393e-311
-2.69227e-311
4.96131e-312
2.99127e-311
-4.75848e-312
-6.69611e-313
3.85067e-312
-1.45544e-311
-1.57214e-311
7.56722e-312
-3.22759e-311
-1.16747e-311
-8.13653e-312
1.71142e-312
3.93575e-312
6.60058e-312
1.89968e-311
2.17168e-312
3.27861e-312
-1.46694e-311
2.05152e-311
-1.52143e-311
-3.38288e-311
-1.09778e-312
-1.38171e-311
-2.83621e-311
-6.41315e-312
-5.60772e-312
-6.77143e-312
-5.09911e-312
-1.53465e-311
2.81545e-311
-6.72992e-311
-6.72182e-311
-2.70991e-311
-2.85539e-311
-1.85662e-311
-4.17359e-311
-7.19441e-311
-7.68378e-311
-5.34467e-311
-3.9829e-311
3.95352e-312
3.04542e-311
-2.39337e-311
-9.20344e-312
7.34357e-312
3.45657e-311
-7.47183e-312
6.49877e-312
3.82563e-311
3.41243e-312
6.31086e-312
-8.19854e-312
-3.17237e-311
-9.18484e-312
-3.81627e-311
4.67816e-311
4.22298e-311
1.75084e-311
3.78676e-311
-1.35344e-311
-4.50426e-312
3.21702e-311
2.49372e-311
-9.06387e-312
-4.90047e-311
-3.88314e-311
-3.29923e-311
4.91632e-312
1.32811e-311
4.62384e-311
6.53153e-312
4.08469e-311
9.24444e-311
6.61473e-311
4.14735e-311
5.22949e-313
-1.61617e-311
-3.70419e-311
-4.66757e-311
1.51856e-311
2.9348e-311
1.2864e-311
1.76938e-311
-1.70536e-312
-3.31531e-311
-1.28254e-311
8.72963e-312
-1.39369e-311
-3.29804e-311
-2.24599e-311
-9.98214e-312
-1.1421e-311
1.03872e-311
-6.14706e-312
-1.35029e-311
-1.41924e-311
1.07528e-311
-1.87444e-311
1.24878e-311
-1.51511e-311
2.20167e-312
-2.17661e-311
-2.84416e-311
-2.62847e-311
-5.14404e-311
-2.85335e-311
-3.38166e-311
-3.92071e-311
-2.41938e-311
3.65653e-311
-1.35508e-310
-8.60922e-311
-6.49758e-311
-3.00938e-311
-2.03523e-312
3.82143e-312
-4.39377e-311
-8.02894e-311
-9.76228e-311
-4.20207e-311
7.22012e-312
3.11316e-311
1.94716e-311
-4.01908e-311
1.51677e-311
4.95812e-311
-1.29616e-311
4.9383e-312
3.50108e-311
1.20516e-311
1.02724e-311
1.58384e-311
1.96756e-311
1.26557e-311
2.0015e-311
6.19409e-311
5.15339e-311
2.926e-311
9.99077e-312
-1.20562e-311
-1.49323e-311
8.69794e-312
-1.54723e-311
-4.70626e-311
-6.29661e-311
-2.16365e-311
-3.9512e-311
8.95961e-312
4.56141e-311
5.30974e-311
1.22433e-311
6.97296e-311
1.09835e-310
9.2363e-311
8.70527e-311
2.66799e-311
-9.36657e-312
-3.68058e-311
4.90066e-312
2.52856e-311
3.27102e-311
1.49941e-311
4.41716e-311
1.24524e-311
-3.0443e-311
-1.96813e-311
3.7371e-312
-2.16297e-311
-3.22491e-311
-2.59968e-311
-4.70878e-312
-1.95935e-312
8.09611e-312
1.50546e-311
3.46923e-311
2.59529e-311
1.04753e-311
-2.56762e-311
2.10989e-311
1.18687e-311
4.66208e-311
-2.42849e-311
-3.6631e-311
-1.17488e-311
-5.09881e-311
-1.04987e-310
-1.77951e-310
-1.27238e-310
-3.2734e-311
-4.00407e-311
-2.95127e-310
-1.60296e-310
-2.50738e-311
-4.93713e-311
-4.31568e-311
-2.70341e-311
-3.67278e-311
-7.69328e-311
-1.07358e-310
-6.51683e-311
-2.99039e-311
-6.4727e-312
2.4234e-311
-4.0198e-313
3.61515e-311
4.76697e-311
2.76301e-311
6.30009e-313
5.48058e-311
6.41319e-311
2.7252e-311
1.79108e-311
2.18757e-311
-9.90529e-312
8.65843e-312
4.35227e-311
2.93452e-311
2.86786e-311
1.1054e-311
-3.17593e-311
-2.22689e-311
-2.96562e-312
-3.7551e-311
-5.77174e-311
-3.68031e-311
7.01003e-312
-8.67272e-312
2.59717e-311
5.52337e-311
1.13335e-310
9.12921e-311
7.17272e-311
1.12617e-310
5.0767e-311
4.05645e-311
1.75571e-311
2.73889e-311
1.34954e-311
5.01318e-311
2.10312e-311
-2.63246e-312
-1.73304e-312
3.47684e-311
1.18008e-311
-6.58016e-313
2.70424e-311
-1.83248e-311
-3.51406e-311
-3.54656e-311
3.62407e-311
3.29143e-311
9.9176e-312
-1.12444e-311
2.44649e-311
1.7185e-311
-9.37105e-312
-1.57595e-311
-3.83191e-311
-1.39312e-313
-2.73643e-311
2.38747e-311
2.67681e-311
1.55416e-311
2.28997e-311
6.00971e-312
-1.13514e-310
-2.34077e-310
-1.89365e-310
-8.654e-311
-1.42163e-310
-1.62375e-310
-1.94894e-310
-2.4041e-311
-1.89164e-311
-7.33258e-311
-5.01122e-311
-3.38463e-311
-8.69395e-311
-1.04202e-310
-1.0706e-310
-5.35622e-311
-1.61394e-311
1.84111e-311
-2.4568e-311
6.89178e-311
6.16061e-311
8.07161e-311
1.89769e-311
3.4623e-311
4.12331e-311
5.05702e-311
1.92885e-311
3.0297e-311
8.32086e-312
3.61065e-311
1.40644e-311
4.13121e-311
4.12326e-311
-3.38325e-311
-3.30076e-311
9.10037e-312
-7.2655e-312
-5.4779e-311
-8.79903e-311
-6.56801e-312
3.4731e-311
-2.61442e-311
5.74182e-311
6.92528e-311
1.1403e-310
9.81181e-311
5.81439e-311
1.11728e-310
8.78701e-311
7.61708e-311
2.54535e-311
6.50062e-312
2.67374e-311
4.91404e-311
1.67607e-311
5.83619e-312
2.65313e-311
5.00279e-311
6.74941e-311
7.646e-311
3.83742e-311
-1.83827e-311
-4.65604e-311
-6.63547e-311
1.73941e-311
1.75923e-311
3.27398e-312
2.57048e-311
2.01508e-311
6.38855e-312
-4.22802e-311
-5.38352e-311
-5.69646e-311
5.4551e-312
-4.79137e-311
-1.39184e-310
-1.62088e-310
-1.10563e-310
5.61438e-311
6.20099e-312
-4.76544e-311
-1.33684e-310
-2.05096e-310
-8.19245e-311
-4.02411e-311
2.72969e-310
4.53145e-311
2.02774e-310
6.27849e-311
-7.51074e-311
-5.82719e-311
-1.27379e-310
-1.98621e-310
-1.03925e-310
-8.58636e-311
-1.13028e-310
-3.43032e-311
-6.82417e-311
-7.97297e-311
-1.96038e-312
8.05179e-311
1.42082e-310
9.80516e-311
9.24068e-311
4.429e-311
7.18579e-311
2.76392e-311
-5.43687e-311
-2.32539e-311
5.27112e-311
9.00458e-312
3.94735e-311
1.73617e-311
-6.71872e-312
-5.02396e-312
-1.98452e-311
-5.44383e-311
-7.37905e-311
-1.10462e-310
-5.02491e-311
-2.24631e-311
-7.60435e-311
2.11844e-312
4.70017e-311
6.283e-311
-8.19943e-311
3.49987e-311
6.2157e-311
1.1319e-310
1.0032e-310
3.80656e-311
1.44073e-311
-5.2323e-311
2.91559e-311
4.0356e-311
3.02858e-311
4.99757e-311
2.00096e-311
7.81477e-311
6.43851e-311
8.46176e-311
-3.41785e-312
-2.7166e-311
-2.55987e-311
-1.36127e-311
8.9964e-311
6.05201e-311
8.62752e-311
3.8482e-311
1.11015e-311
3.24751e-311
-6.23221e-311
-2.84929e-312
2.79904e-311
-5.48351e-311
-2.45607e-311
4.04071e-311
-1.65798e-310
2.17467e-311
8.6095e-311
-8.68819e-311
-1.33696e-310
-2.6089e-310
-5.286e-310
-2.82634e-310
5.77051e-311
-9.01409e-312
3.90059e-310
2.23025e-310
1.27221e-311
-1.29295e-310
-2.72481e-310
-2.56599e-310
-2.15021e-310
-8.54839e-311
-1.46806e-310
-2.41287e-311
-6.07649e-311
-4.8315e-311
-1.21179e-310
5.69439e-311
-4.43805e-311
6.20544e-311
1.47391e-310
9.52347e-311
1.43356e-310
5.95519e-311
-2.72507e-311
-2.81822e-311
6.88382e-311
7.82876e-311
2.61509e-311
8.70606e-312
2.54703e-311
3.94192e-311
3.9052e-312
-2.14684e-311
-2.32159e-311
-9.79944e-311
-8.82098e-311
-7.68492e-312
-3.66638e-311
1.43882e-311
-4.42331e-312
-6.28631e-311
-1.96168e-310
-7.22551e-311
-1.03009e-310
5.89347e-311
5.25355e-311
-6.18739e-312
-2.79129e-313
-8.83476e-311
5.34851e-312
3.5388e-311
-1.30349e-311
-5.9209e-311
-5.87247e-311
7.56659e-311
9.32484e-312
4.23479e-311
-6.75174e-311
-5.86338e-311
-4.25904e-311
-3.66157e-312
1.57295e-310
1.36786e-310
1.22122e-310
9.94362e-311
1.10925e-310
5.83317e-311
9.72626e-312
7.86713e-312
-1.29244e-310
-1.02159e-310
6.01062e-311
1.08686e-310
-1.59154e-310
-2.36339e-311
2.54837e-311
-7.81713e-312
-2.79839e-310
-2.38104e-310
-5.14801e-310
-4.43405e-310
-4.62738e-310
-6.34323e-311
3.6945e-310
3.59532e-310
1.07333e-310
-5.70946e-311
-3.02318e-310
-2.5193e-310
-2.58291e-310
-1.35293e-310
-1.49101e-310
-2.34351e-311
1.08327e-311
4.10591e-311
-5.62534e-311
2.074e-311
-1.24126e-312
6.59971e-311
9.97099e-311
1.26042e-310
1.33827e-310
1.061e-310
2.30447e-311
-2.01774e-311
4.34906e-311
7.47957e-311
6.3452e-311
9.2954e-311
1.96963e-311
-8.01062e-311
-1.91887e-311
1.58329e-311
4.19262e-311
-5.9182e-311
-7.88313e-311
6.08427e-311
9.51857e-311
1.39579e-311
-2.64039e-311
-1.73311e-310
-2.37794e-310
-2.03728e-310
-2.00486e-310
2.67911e-311
-1.88218e-311
-1.1603e-311
-2.96143e-311
-1.62347e-310
-3.17001e-311
-1.42731e-310
3.11598e-311
-1.19993e-310
-4.47412e-311
1.95427e-311
6.22198e-312
6.78102e-311
-7.5798e-311
-6.81321e-311
-5.88004e-311
3.60318e-312
1.10721e-310
4.5344e-311
7.71986e-311
8.45376e-311
5.31617e-311
-3.28327e-312
1.78554e-311
-7.56149e-311
-3.42608e-312
7.04907e-311
9.90188e-311
7.6795e-311
7.7499e-311
4.81527e-311
-1.62138e-310
-1.2472e-310
-2.44525e-310
-1.04431e-310
1.38189e-310
3.28859e-310
-6.38743e-310
-3.37789e-310
-3.24049e-312
7.55805e-311
1.86444e-310
2.38452e-311
-1.26699e-310
-6.58205e-311
-2.03723e-310
-1.21034e-310
-1.6337e-310
-1.09528e-310
-4.31629e-311
-6.24379e-311
-1.0011e-311
9.87824e-312
-2.30939e-311
6.03688e-311
1.04316e-310
9.92924e-311
8.2423e-311
1.17463e-310
4.45825e-311
-3.97733e-311
1.0564e-310
1.19132e-310
1.07227e-310
1.90767e-310
2.75603e-311
-5.52461e-311
-1.47878e-310
3.25968e-311
1.03978e-310
6.86781e-311
2.32316e-311
1.17357e-310
6.23336e-311
7.62489e-311
1.0768e-310
-1.17831e-310
-1.54599e-310
-1.31612e-310
-1.24798e-310
1.5498e-310
-4.78153e-311
-1.2956e-311
-5.72217e-311
-1.29271e-310
-4.68603e-311
-1.48328e-310
1.62042e-311
-5.43543e-311
2.99806e-311
1.95794e-311
4.09024e-311
6.93576e-311
-1.28859e-310
-1.02939e-310
-1.47543e-310
1.53735e-311
1.02812e-310
3.38441e-311
3.63749e-311
9.09359e-312
3.91372e-311
4.87479e-311
-1.44356e-310
-1.31545e-310
-1.12526e-310
1.38264e-311
1.64947e-310
1.19228e-310
2.08168e-310
1.2564e-310
1.65881e-313
-1.30088e-311
-1.35848e-310
-1.16958e-310
2.05475e-310
2.92584e-310
-5.74456e-310
-3.9654e-310
-7.97987e-311
6.49393e-311
3.48147e-310
1.1415e-311
6.49693e-311
-1.17399e-311
-1.7922e-310
-1.4907e-310
-1.97412e-310
-2.86868e-310
-9.53062e-311
-6.60223e-311
4.21024e-312
-2.18042e-311
-1.95887e-311
-8.37984e-312
6.21886e-311
7.8344e-311
5.36915e-311
1.52144e-310
1.44206e-310
8.01603e-311
1.45844e-310
4.41764e-311
1.04351e-310
1.31226e-310
5.18524e-311
-1.60302e-311
-7.49316e-312
2.24671e-311
2.35972e-311
2.16592e-310
1.24663e-310
6.73287e-311
1.06017e-310
7.94637e-311
8.41197e-311
-4.35448e-312
-7.91533e-311
-7.1415e-311
-7.17492e-311
1.11744e-310
-6.40238e-311
-2.1447e-311
1.08679e-310
-5.69004e-311
-3.54134e-311
-1.47496e-310
1.93898e-311
-1.39169e-310
1.45953e-310
1.06542e-310
4.20563e-311
-1.38431e-312
-1.00325e-310
-7.06255e-311
-1.18308e-310
-1.11646e-311
1.18603e-310
2.49336e-310
1.23603e-310
6.36709e-311
3.42952e-311
1.12432e-310
-2.18116e-310
-2.94335e-310
-4.50456e-311
1.27939e-310
2.31518e-310
3.47026e-310
4.58353e-310
3.08778e-310
2.52811e-310
4.32988e-310
5.661e-311
-8.8715e-311
-1.67711e-310
-1.79711e-311
-6.85164e-310
-4.87727e-310
-2.61139e-310
-4.14906e-311
1.68976e-310
4.50524e-311
1.74264e-311
-1.6096e-310
-1.61394e-310
-1.39507e-310
-1.68319e-310
-2.89945e-310
-2.16424e-310
-2.1701e-310
-1.55938e-310
-1.16226e-310
-1.15611e-310
-5.41228e-311
1.28767e-310
8.22707e-311
-6.41874e-311
6.66886e-312
1.00021e-310
7.60455e-311
9.47733e-311
2.35968e-311
1.47286e-310
2.00939e-310
1.87378e-310
1.20926e-310
4.3205e-311
1.01682e-310
1.0573e-310
2.43414e-310
2.3277e-310
-1.93108e-311
1.02577e-310
1.51545e-310
5.83329e-311
3.6885e-311
-7.95617e-312
-8.91953e-311
1.51185e-310
9.26239e-311
-6.86054e-311
-9.04686e-311
8.63304e-311
5.25384e-311
1.04514e-311
-2.91428e-312
6.42732e-311
-3.20355e-311
9.4539e-311
1.84247e-310
1.43193e-310
1.77883e-311
1.91027e-311
8.47621e-311
9.72441e-311
5.52478e-311
9.99698e-311
3.39359e-310
2.11827e-310
7.51214e-311
1.22396e-311
8.5647e-312
-1.72714e-310
-1.92701e-310
9.02066e-312
1.03333e-310
3.25926e-310
2.96376e-310
5.35008e-310
3.1526e-310
2.21528e-310
3.09388e-310
3.78865e-311
-3.25423e-312
-7.15817e-311
1.66854e-310
-8.78245e-310
-9.42389e-310
-4.30018e-310
-2.03525e-310
-2.76017e-311
-2.75682e-311
1.96074e-310
-9.81351e-311
-1.59111e-310
-1.73408e-310
-2.55677e-310
-2.23431e-310
-1.83348e-310
-7.97926e-311
-2.11083e-311
-7.21236e-311
-1.65706e-311
-1.67839e-310
-4.73469e-311
8.84544e-311
-1.576e-310
-5.60861e-311
1.29731e-310
9.15117e-311
6.41127e-311
2.69601e-312
6.34568e-311
2.00749e-310
2.76537e-310
1.34258e-310
1.2805e-310
8.66183e-311
8.63347e-311
2.37846e-310
2.548e-310
6.19169e-311
1.21084e-310
1.32552e-310
1.20312e-310
9.71525e-311
7.1313e-311
-3.42446e-311
1.79899e-310
8.60015e-311
-1.61042e-310
-6.13084e-312
1.44544e-310
-7.53742e-311
4.68428e-311
-5.2657e-312
-4.4804e-311
7.7508e-312
1.48998e-310
1.9397e-310
1.71003e-310
3.43766e-311
7.22465e-311
2.21116e-311
1.16792e-310
9.42731e-311
1.4598e-310
1.63784e-310
1.10143e-310
1.20604e-310
3.05386e-312
-1.58418e-310
-1.13645e-310
-1.22287e-310
-1.08622e-310
5.26219e-312
3.77828e-311
1.50858e-310
3.79154e-310
4.28839e-310
3.34937e-310
3.62701e-310
3.92817e-311
-3.10783e-310
-5.84479e-310
-6.48442e-310
-5.30143e-310
-5.30154e-310
-4.19874e-310
-5.84248e-310
-3.27318e-310
-3.33972e-310
-2.93566e-311
1.89423e-311
-2.81517e-310
-2.24996e-310
-4.02545e-310
-3.27876e-310
-1.82209e-310
-1.65781e-310
-1.46338e-310
-1.09726e-310
1.20302e-312
-9.26154e-311
-2.88375e-311
1.41186e-310
3.4907e-311
-4.68484e-311
8.31275e-311
6.73609e-311
7.79122e-311
3.60999e-311
6.071e-311
8.85881e-313
1.87479e-310
1.13355e-310
6.78867e-311
8.83685e-311
9.62132e-311
2.51223e-310
2.05647e-310
1.13144e-310
7.69786e-311
1.56664e-310
1.6759e-310
2.02631e-310
2.30652e-310
-3.63486e-311
1.54534e-310
1.25558e-310
-4.16e-311
8.03972e-311
1.28039e-310
-2.41397e-310
2.57131e-311
7.27739e-311
-1.11207e-310
9.68509e-311
2.39438e-310
1.9896e-310
1.14685e-310
-1.17982e-311
-3.45834e-311
-2.03218e-311
2.70722e-310
1.33469e-310
1.59112e-310
-3.8333e-311
1.28015e-310
6.90559e-311
2.48338e-311
-1.57075e-310
-1.52934e-310
-1.66032e-310
-2.69957e-310
-7.14652e-311
-1.06985e-310
9.59654e-311
3.60461e-310
5.53162e-310
5.2225e-310
2.47574e-310
5.60919e-311
-3.81611e-310
-5.28677e-310
-6.84155e-310
-5.35265e-310
-2.89278e-310
-1.6526e-310
-4.2164e-310
-2.74601e-310
-2.88274e-310
-3.76566e-310
-9.58856e-311
-2.06533e-310
-2.56074e-310
-5.65226e-310
-3.3742e-310
-3.05152e-310
-2.92312e-310
-3.72252e-310
-3.20976e-310
-1.70472e-310
-1.0545e-310
3.51199e-311
1.44004e-310
7.75646e-311
-1.00535e-311
-2.68026e-311
5.06594e-312
3.04251e-311
-2.20716e-311
8.2394e-311
-1.56488e-311
7.01203e-311
3.42433e-311
-1.08369e-311
2.05276e-310
1.99961e-310
2.37821e-310
2.20854e-310
1.29976e-310
6.54439e-311
1.51521e-310
1.24611e-310
1.99508e-310
2.01311e-310
-9.45316e-311
5.01723e-311
1.39088e-310
3.65062e-311
1.20705e-310
5.4471e-311
-2.49183e-310
-6.70588e-313
-7.01922e-311
1.96918e-313
2.43932e-310
2.38592e-310
2.26212e-310
1.03918e-310
5.61263e-311
2.41873e-311
3.17505e-312
1.75271e-310
1.00886e-310
1.23553e-310
-1.08396e-311
-2.23803e-312
-7.36313e-311
-7.87062e-311
-1.68453e-310
-2.27887e-310
-1.64819e-310
-2.13585e-310
-5.74051e-311
-1.542e-310
1.42476e-310
5.79137e-310
4.87051e-310
5.43083e-310
2.45932e-310
-1.3608e-310
-5.86384e-310
-9.2063e-310
-9.50727e-310
5.41766e-310
5.01487e-310
2.32541e-310
-3.7158e-310
-2.53794e-310
-3.0983e-310
-4.33684e-310
-4.43563e-310
-2.74482e-310
-3.35195e-310
-5.94028e-310
-4.25171e-310
-4.92617e-310
-4.55156e-310
-4.4421e-310
-4.72507e-310
-3.03821e-310
-1.15798e-310
9.33919e-311
1.67453e-310
1.60402e-310
4.52626e-311
-2.9644e-311
8.00922e-311
4.67898e-311
-2.60474e-311
-1.82424e-311
-5.53971e-311
3.48283e-311
-6.3529e-311
-1.85902e-310
2.11526e-310
2.50443e-310
1.4636e-310
2.19018e-310
2.03488e-310
1.77939e-310
1.1623e-310
-1.96731e-311
2.19163e-310
1.98069e-310
5.13734e-311
-6.39466e-312
1.44989e-310
1.14563e-310
2.0067e-310
1.46227e-310
-1.99393e-310
5.86329e-311
5.36306e-311
9.08879e-311
3.52045e-310
2.16692e-310
2.58915e-310
1.69647e-310
7.62243e-311
3.15778e-311
3.76491e-311
1.56924e-310
2.47321e-310
3.09593e-310
5.08685e-311
2.34701e-310
4.69378e-311
-1.32117e-310
-3.09374e-310
-1.91437e-310
-1.76649e-310
1.19387e-311
1.5215e-310
3.71755e-311
1.32266e-310
2.89311e-310
5.19123e-310
5.14233e-310
2.51076e-310
-6.08733e-311
-1.82567e-310
-8.19988e-311
2.25388e-310
1.41388e-310
3.82928e-310
-1.74738e-310
-4.18996e-310
-7.39802e-310
-7.69247e-310
-6.05801e-310
-6.98735e-310
-4.1448e-310
-1.72435e-310
-5.49099e-310
-4.19751e-310
-4.20732e-310
-3.09862e-310
-3.20521e-310
-5.2074e-310
-3.41418e-310
-1.65808e-310
-3.02645e-311
1.33376e-310
2.50007e-310
1.47305e-310
6.46661e-311
1.08232e-310
7.02921e-311
7.10775e-311
-5.29915e-312
-7.21319e-311
6.44864e-311
-1.59981e-310
-3.04345e-310
1.35714e-310
2.54753e-310
2.3836e-310
2.53606e-310
2.10115e-310
7.3549e-311
1.78096e-311
4.18096e-311
1.99282e-310
1.62901e-310
1.71553e-310
7.59079e-311
1.48508e-310
1.51306e-310
1.14672e-310
1.43078e-310
-1.64444e-310
1.67105e-310
2.98465e-311
1.9694e-310
3.12053e-310
2.97417e-310
3.46872e-310
2.02323e-310
5.08854e-311
7.23296e-312
6.33852e-311
2.73696e-310
2.54256e-310
2.32174e-310
7.08938e-311
3.31291e-310
2.89049e-311
-1.58951e-310
-1.40582e-310
-1.782e-310
-1.90748e-310
2.62777e-310
2.53078e-310
-2.08108e-311
1.72682e-310
3.46462e-310
2.63659e-310
1.93299e-310
1.6227e-310
2.65163e-310
3.10591e-311
3.02035e-310
7.36457e-310
5.62062e-310
1.75889e-310
-3.20893e-310
-4.31059e-310
-6.40101e-310
-8.1612e-310
-5.80356e-310
-7.25991e-310
-4.34564e-310
-3.82923e-310
-7.05109e-310
-6.94128e-310
-4.18524e-310
-3.95307e-310
-3.45762e-310
-5.87944e-310
-4.34327e-310
-1.7093e-310
-6.16586e-311
1.70626e-310
3.98125e-310
3.30444e-310
8.69033e-311
1.2451e-310
7.19248e-311
-1.7595e-311
1.04727e-312
-1.30788e-310
-3.98984e-311
-1.77848e-310
-3.03447e-310
1.13556e-310
1.93277e-310
1.55671e-310
1.84929e-310
8.37814e-311
-1.92095e-311
1.0424e-311
-9.34011e-311
6.7317e-311
1.21423e-310
1.82229e-310
-4.82755e-311
1.32959e-310
1.1039e-310
3.36778e-311
2.31771e-310
-1.61838e-310
-6.10161e-311
-6.53178e-311
1.85122e-310
3.36355e-310
3.52894e-310
3.56633e-310
1.21603e-310
7.39537e-311
-4.2444e-311
1.82802e-310
3.49447e-310
2.7709e-310
3.52545e-310
1.99229e-310
3.38462e-310
7.93029e-311
-1.7625e-310
9.60273e-311
-1.47625e-310
-9.60238e-311
1.2061e-310
2.93292e-311
2.42917e-312
2.25795e-310
3.36772e-310
5.9537e-310
3.60381e-310
4.25257e-310
7.905e-310
1.06724e-309
1.33025e-309
1.42949e-309
8.96517e-310
3.12101e-310
1.98975e-311
-2.14847e-310
-4.85808e-310
-6.42209e-310
-4.82115e-310
-7.50022e-310
-4.72425e-310
-3.98711e-310
-6.86507e-310
-8.09498e-310
-7.07624e-310
-6.09572e-310
-4.11731e-310
-4.27307e-310
-4.78448e-310
-1.41431e-310
-1.79001e-310
9.64728e-311
3.919e-310
3.74852e-310
1.85564e-310
1.47648e-310
6.8797e-311
-1.24944e-311
8.74717e-311
-2.01366e-310
-2.99303e-310
-2.57958e-310
-3.0409e-310
1.09503e-310
7.67242e-311
4.14034e-311
1.81005e-310
7.06947e-311
-1.82905e-311
-7.44897e-311
-1.1889e-310
-9.92963e-312
-5.24732e-311
8.07846e-311
-3.67638e-311
6.8235e-311
1.24902e-310
-2.9085e-311
7.13665e-311
-2.35864e-310
-1.70506e-310
-3.73937e-311
1.59379e-310
2.82961e-310
3.21183e-310
3.69018e-310
1.3523e-311
1.10033e-310
3.13989e-311
1.76545e-310
3.73685e-310
3.68962e-310
4.00605e-310
3.14735e-310
2.8796e-310
5.30367e-311
-4.08096e-311
1.27671e-310
-6.92834e-311
-1.23009e-310
1.07943e-310
1.96428e-311
9.91945e-311
5.22422e-310
5.87539e-310
6.73283e-310
5.33567e-310
5.25252e-310
5.88362e-310
1.34942e-309
1.4514e-309
1.98563e-309
7.51902e-310
7.37922e-310
6.25873e-310
3.72199e-310
-2.34534e-310
-6.42714e-310
-6.1689e-310
-8.20563e-310
-3.55578e-310
-2.73073e-310
-5.34725e-310
-9.33412e-310
-9.96531e-310
-8.18589e-310
-6.91458e-310
-7.11915e-310
-6.41676e-310
-1.99861e-310
-1.09489e-310
-1.89658e-312
2.42204e-310
3.78948e-310
2.23466e-310
2.3427e-310
1.33811e-310
3.98864e-311
4.7155e-311
-1.85542e-310
-2.191e-310
-2.65413e-310
-2.88778e-310
1.69407e-310
1.53786e-310
5.9068e-311
1.55529e-310
-2.80417e-311
-9.97764e-311
-1.93299e-310
-1.77281e-310
-1.97403e-310
-1.20931e-310
2.65152e-311
2.78514e-312
1.937e-310
1.85019e-310
2.47878e-311
8.26715e-311
-2.20431e-310
-2.52136e-310
-9.77964e-311
7.53543e-311
2.24503e-310
3.10209e-310
2.55093e-310
4.11533e-311
2.14894e-310
1.71899e-310
1.93588e-310
4.95715e-310
3.98208e-310
5.05038e-310
2.89288e-310
2.25026e-310
4.07687e-311
-1.10872e-310
1.20262e-310
-1.2285e-311
-1.60849e-310
7.1737e-311
-1.81054e-310
-7.0522e-311
4.43973e-310
8.21303e-310
8.97903e-310
6.13842e-310
9.02962e-310
7.58257e-310
1.0751e-309
6.89866e-310
9.00671e-310
3.5032e-310
2.78549e-310
5.5745e-310
4.72746e-310
-1.09891e-310
-5.9179e-310
-7.94598e-310
-7.4658e-310
-4.24743e-310
-3.00455e-310
-7.00932e-310
-1.05621e-309
-1.03422e-309
-9.72332e-310
-7.93879e-310
-8.24967e-310
-7.38173e-310
-3.84966e-310
-4.10632e-311
4.80446e-311
2.87566e-310
5.30308e-310
2.45577e-310
2.42222e-310
7.5263e-311
-3.57494e-312
2.3519e-311
-5.30579e-311
-1.156e-310
-2.61237e-310
-4.07309e-310
4.90344e-311
3.55812e-311
-1.8626e-311
1.31228e-310
1.25278e-310
-1.35986e-310
-3.15195e-310
-2.18138e-310
-2.55652e-310
-2.4316e-310
-3.63498e-311
-1.56344e-311
6.86851e-311
1.58882e-310
6.51994e-311
-2.35587e-311
-2.86096e-310
-1.96686e-310
-5.39015e-311
2.71384e-311
1.65324e-310
2.05801e-310
2.52596e-310
8.56562e-311
2.14968e-310
2.65855e-310
2.3282e-310
3.99935e-310
3.63876e-310
5.43768e-310
4.60309e-310
3.88835e-310
1.18068e-310
-1.11975e-310
-1.24204e-311
-1.36116e-310
-2.87798e-310
-1.66204e-310
-2.67689e-310
-8.24936e-311
2.93223e-310
5.97588e-310
7.2357e-310
3.84548e-310
7.69434e-310
6.32457e-310
8.93201e-310
1.00092e-309
5.53155e-310
6.49553e-310
4.79114e-310
9.05566e-310
8.85929e-310
4.81472e-311
-5.54057e-310
-6.40081e-310
-7.5932e-310
-5.66251e-310
-4.32639e-310
-7.06969e-310
-9.75517e-310
-1.03869e-309
-9.7909e-310
-8.45837e-310
-6.90902e-310
-8.48656e-310
-5.32701e-310
-8.53111e-311
-1.54097e-310
2.00557e-310
4.21151e-310
2.26333e-310
2.37402e-310
1.35403e-310
1.30637e-311
-1.64675e-311
-4.46809e-311
5.50625e-311
-7.7089e-311
-3.49177e-310
-2.77141e-311
1.04487e-310
-2.29622e-311
3.84936e-311
-2.58681e-311
-9.73461e-311
-2.13788e-310
-1.63655e-310
-1.62049e-310
-1.76697e-310
2.83542e-311
-1.67327e-310
2.14421e-311
4.68538e-312
-8.70803e-311
-1.91744e-311
-2.20577e-310
-2.14537e-310
1.504e-311
3.83921e-311
7.7715e-311
1.65007e-310
2.40651e-310
1.66398e-310
2.09333e-310
3.52291e-310
3.5014e-310
5.07071e-310
3.2919e-310
5.47249e-310
4.92818e-310
5.69489e-310
2.48422e-310
1.14322e-310
-7.46422e-311
-2.49771e-310
-2.34927e-310
-1.49816e-310
-1.58959e-310
1.01607e-310
4.21615e-310
6.50237e-310
5.56198e-310
4.80689e-310
7.94261e-310
7.78572e-310
9.59553e-310
1.43143e-310
-4.4006e-310
1.37397e-310
5.52967e-310
8.38637e-310
7.25878e-310
1.85609e-310
-4.72924e-310
-4.96457e-310
-6.96715e-310
-6.42931e-310
-6.83628e-310
-7.83844e-310
-9.09878e-310
-1.04194e-309
-8.23524e-310
-9.17463e-310
-6.4014e-310
-7.82802e-310
-4.35551e-310
-3.25257e-311
6.79395e-311
8.90108e-311
2.76639e-310
2.49145e-310
2.47701e-310
1.61682e-310
6.6267e-311
5.71413e-311
-1.83867e-311
-4.27162e-311
-4.05636e-311
-4.7936e-310
-8.02626e-311
-1.68407e-311
-1.23322e-310
8.42438e-312
-5.79712e-311
-9.33246e-311
-1.35715e-310
-8.57262e-311
-1.41363e-310
3.55761e-311
4.75874e-311
-1.47052e-310
-3.64844e-311
-2.17261e-310
-1.0836e-310
-1.9818e-310
-2.15448e-310
-1.46415e-310
-5.00687e-311
-2.64667e-311
1.11884e-310
1.3894e-310
2.09022e-310
2.20086e-310
1.34665e-310
1.6516e-310
3.58605e-310
5.45331e-310
5.00838e-310
3.97003e-310
5.29189e-310
6.2131e-310
2.4386e-310
8.96453e-311
-2.01718e-310
-2.80504e-310
-2.03907e-310
-1.65428e-310
-8.86773e-312
1.45718e-310
4.33782e-310
7.82572e-310
6.36721e-310
4.937e-310
6.22935e-310
7.17468e-310
3.8412e-310
2.5762e-311
-6.31361e-310
3.93175e-310
1.16323e-310
6.89557e-310
6.33225e-310
3.23518e-310
-5.87598e-310
-8.16184e-310
-8.67981e-310
-9.35984e-310
-9.65579e-310
-1.09776e-309
-8.23126e-310
-9.68268e-310
-8.18982e-310
-8.0048e-310
-5.44394e-310
-8.36232e-310
-4.04947e-310
-6.42533e-311
1.31067e-310
3.21419e-311
2.00021e-310
1.69104e-310
2.81902e-310
1.01616e-310
8.68391e-312
-1.75639e-311
-8.38253e-311
-1.08247e-311
-1.13706e-310
-3.3729e-310
-2.17448e-310
-1.16924e-310
-2.634e-310
3.40767e-311
9.99176e-312
-1.50039e-310
-7.93306e-311
-4.5556e-312
-1.14927e-310
8.3539e-311
2.34508e-312
-1.89728e-310
-1.68184e-311
-2.82587e-310
-1.60376e-310
-2.33351e-310
-1.43508e-310
-2.65882e-310
-2.13739e-310
-1.04582e-311
-6.17266e-313
8.19784e-312
1.09262e-310
1.83583e-310
1.20292e-310
-2.8718e-312
2.72993e-310
5.64855e-310
5.64924e-310
3.74883e-310
5.22068e-310
6.40729e-310
4.22357e-310
1.53518e-310
-2.65542e-311
-6.78403e-311
-2.00283e-310
-1.64999e-310
1.34258e-310
2.24088e-310
4.05101e-310
5.12421e-310
7.644e-310
4.90787e-310
6.95061e-310
8.31669e-310
2.1942e-310
3.79643e-311
8.86229e-311
9.47224e-310
6.22412e-310
6.4959e-310
5.47407e-310
3.74785e-310
-4.67602e-310
-9.21099e-310
-1.07511e-309
-1.22995e-309
-1.26932e-309
-1.21138e-309
-8.45977e-310
-7.69745e-310
-7.46536e-310
-7.07432e-310
-4.70312e-310
-7.60543e-310
-4.83681e-310
-2.00784e-310
4.45773e-312
-4.34569e-311
7.34611e-311
1.05158e-310
3.08437e-310
1.34187e-310
7.7932e-311
-1.10522e-310
-8.50582e-311
-4.0062e-311
-1.67348e-310
-1.96294e-310
-2.03682e-310
-4.738e-311
-3.42217e-310
-1.47639e-310
4.75756e-311
-2.5551e-310
-2.45103e-310
-5.60838e-311
-1.75176e-310
2.1225e-310
-1.12297e-310
-1.74595e-310
-1.93927e-310
-4.72033e-310
-3.09872e-310
-2.68763e-310
-2.78738e-310
-3.69422e-310
-3.16481e-310
-4.20361e-311
5.09794e-311
3.16593e-311
4.64019e-311
5.35595e-311
-4.86953e-311
8.58348e-311
1.42479e-310
5.77825e-310
5.95267e-310
5.53189e-310
6.63606e-310
6.47421e-310
6.48735e-310
1.2095e-310
-1.08029e-310
-1.37428e-310
-3.24023e-310
-2.32381e-310
1.10104e-310
4.21828e-310
4.51195e-310
6.30035e-310
9.24878e-310
7.28245e-310
6.16616e-310
5.95821e-310
4.40621e-310
5.61281e-311
3.77825e-310
1.47843e-309
1.32078e-309
1.10153e-309
9.66324e-310
4.68375e-310
-7.65313e-311
-5.17561e-310
-8.19494e-310
-1.33933e-309
-1.07117e-309
-1.2447e-309
-1.04348e-309
-8.71276e-310
-6.60743e-310
-6.37133e-310
-5.13833e-310
-5.78728e-310
-5.96006e-310
-2.25587e-310
-5.07978e-311
-2.00344e-311
-1.06196e-310
1.27376e-310
2.5589e-310
2.02519e-310
1.23984e-310
-1.2285e-310
2.13252e-311
-1.10277e-310
-1.69467e-310
-1.88119e-310
-1.53356e-310
-8.52144e-311
-2.92408e-310
-2.67196e-310
6.01976e-311
-1.75595e-310
-3.64367e-310
1.08259e-311
-1.07279e-310
2.23451e-310
1.44741e-311
-1.37717e-310
-2.18167e-310
-4.97599e-310
-4.1995e-310
-3.22787e-310
-3.72232e-310
-3.38342e-310
-4.06242e-310
-1.16215e-310
6.28762e-311
6.35138e-311
-3.28657e-311
1.985e-310
-4.24859e-311
1.54002e-310
1.50358e-311
5.47416e-310
5.81007e-310
4.67921e-310
6.63252e-310
6.20234e-310
7.85751e-310
1.92783e-310
-3.88948e-312
-2.20284e-310
-5.01709e-310
-2.20696e-310
5.04299e-311
-5.92941e-311
3.65283e-310
9.02736e-310
8.41381e-310
3.08562e-310
1.63457e-310
1.02881e-310
2.91282e-310
1.08945e-309
1.18988e-309
1.17211e-309
1.5238e-309
1.78125e-309
1.32416e-309
8.3924e-310
2.78957e-310
-8.33992e-311
-6.4073e-310
-1.05038e-309
-1.17587e-309
-1.28431e-309
-1.09192e-309
-9.14903e-310
-6.58016e-310
-6.57636e-310
-6.0235e-310
-5.06609e-310
-4.25149e-310
-3.06122e-310
5.68647e-312
-8.48939e-311
1.60239e-311
6.37293e-311
2.88971e-310
2.4304e-310
5.68492e-311
-1.13412e-310
4.06568e-312
-1.89129e-310
-1.50888e-310
-3.45993e-310
-1.79286e-310
-5.41152e-312
-3.70086e-310
-3.57288e-310
-1.07684e-310
-9.42729e-311
-2.00799e-310
3.73706e-311
-3.84456e-311
2.23006e-310
8.54676e-311
-1.18937e-310
-1.5235e-310
-4.01498e-310
-5.1004e-310
-3.51342e-310
-4.11585e-310
-5.45929e-310
-4.54268e-310
-1.63465e-310
-9.30177e-311
-1.31825e-311
-1.81693e-310
2.35608e-310
5.22605e-312
1.17138e-310
-5.6817e-311
4.22786e-310
5.23448e-310
3.50777e-310
5.39531e-310
4.30256e-310
6.86748e-310
2.0483e-310
1.74409e-310
9.11259e-311
-2.82236e-310
-2.3226e-311
9.70027e-311
7.05993e-311
3.66933e-310
9.06281e-310
9.08914e-310
8.17821e-311
-2.90577e-310
7.09614e-312
3.14869e-310
1.00818e-309
1.46222e-309
1.80326e-309
1.53617e-309
1.85011e-309
1.55882e-309
1.14165e-309
4.45725e-310
-2.83942e-311
-1.04989e-310
-7.24636e-310
-1.167e-309
-1.07648e-309
-1.07788e-309
-7.15075e-310
-5.47903e-310
-5.4458e-310
-6.33736e-310
-4.81834e-310
-2.49581e-310
-1.94361e-310
-9.62669e-312
1.65141e-311
-5.01005e-312
-2.68013e-311
2.54681e-310
4.18836e-310
2.11268e-310
1.01187e-310
3.52872e-312
-1.20008e-310
-1.1474e-310
-4.11653e-310
-2.07901e-310
3.78417e-311
-4.35385e-310
-3.15955e-310
-1.14223e-310
-1.15032e-310
-1.33118e-310
1.17123e-310
9.44617e-311
1.85364e-310
-1.10652e-312
-1.02153e-311
-2.26334e-310
-4.54805e-310
-6.42874e-310
-4.60315e-310
-5.75254e-310
-5.1768e-310
-4.62524e-310
-1.84298e-310
-1.21329e-310
-9.34565e-311
-2.4391e-310
1.03386e-310
8.14884e-311
2.04483e-311
-1.93722e-310
2.85994e-310
6.00427e-310
4.58447e-310
5.0786e-310
4.30134e-310
7.51951e-310
4.36497e-310
2.64726e-310
3.11616e-310
6.0115e-311
8.42326e-311
1.33244e-310
1.89747e-310
3.07023e-310
8.35522e-310
1.23591e-309
1.14018e-310
4.00297e-311
2.09732e-310
2.89203e-310
1.185e-309
1.67422e-309
2.94397e-309
2.44026e-309
1.85234e-309
1.65719e-309
1.49637e-309
1.01668e-309
2.64176e-310
8.96782e-311
-8.4778e-310
-1.06298e-309
-1.05388e-309
-1.1509e-309
-5.5648e-310
-4.44466e-310
-2.73834e-310
-5.49399e-310
-6.91308e-310
-1.68789e-310
-3.35811e-310
3.70986e-311
1.58396e-310
4.3913e-311
1.01825e-310
2.36317e-310
4.02524e-310
3.31128e-310
2.0025e-310
1.37387e-310
-6.48061e-311
-1.70994e-310
-3.04775e-310
-1.84331e-310
-1.97574e-311
-3.17476e-310
-3.09478e-310
-9.48312e-311
-4.42777e-311