/*--------------------------------*- C++ -*----------------------------------*\
  =========                 |
  \\      /  F ield         | OpenFOAM: The Open Source CFD Toolbox
   \\    /   O peration     | Website:  https://openfoam.org
    \\  /    A nd           | Version:  11
     \\/     M anipulation  |
\*---------------------------------------------------------------------------*/
FoamFile
{
    format      ascii;
    class       volScalarField;
    location    "619";
    object      p;
}
// * * * * * * * * * * * * * * * * * * * * * * * * * * * * * * * * * * * * * //

dimensions      [0 2 -2 0 0 0 0];

internalField   nonuniform List<scalar> 
427520
(
0.307047
0.30276
0.299774
0.298068
0.296943
0.296118
0.295499
0.295031
0.294673
0.294393
0.29417
0.293989
0.293841
0.293717
0.293612
0.293522
0.293444
0.293376
0.293316
0.293263
0.293216
0.293173
0.293135
0.293101
0.293071
0.293043
0.293018
0.292996
0.292976
0.292958
0.292943
0.292929
0.292916
0.292906
0.292897
0.29289
0.292884
0.29288
0.292877
0.292875
0.292875
0.292877
0.29288
0.292884
0.29289
0.292897
0.292906
0.292916
0.292929
0.292943
0.292958
0.292976
0.292996
0.293018
0.293043
0.293071
0.293101
0.293135
0.293173
0.293216
0.293263
0.293316
0.293376
0.293444
0.293522
0.293612
0.293717
0.293841
0.293989
0.29417
0.294393
0.294673
0.295031
0.295499
0.296118
0.296943
0.298068
0.299774
0.30276
0.307047
0.297688
0.297399
0.29694
0.296439
0.295967
0.295545
0.295179
0.294867
0.294603
0.294379
0.29419
0.294028
0.29389
0.293771
0.293667
0.293577
0.293498
0.293428
0.293367
0.293312
0.293262
0.293218
0.293179
0.293143
0.293111
0.293082
0.293057
0.293033
0.293013
0.292994
0.292977
0.292963
0.29295
0.292939
0.29293
0.292923
0.292917
0.292912
0.292909
0.292908
0.292908
0.292909
0.292912
0.292917
0.292923
0.29293
0.292939
0.29295
0.292963
0.292977
0.292994
0.293013
0.293033
0.293057
0.293082
0.293111
0.293143
0.293179
0.293218
0.293262
0.293312
0.293367
0.293428
0.293498
0.293577
0.293667
0.293771
0.29389
0.294028
0.29419
0.294379
0.294603
0.294867
0.295179
0.295545
0.295967
0.296439
0.29694
0.297399
0.297688
0.295272
0.29547
0.295557
0.295459
0.295273
0.295061
0.294848
0.294645
0.294458
0.294288
0.294136
0.294001
0.293881
0.293774
0.29368
0.293595
0.29352
0.293453
0.293393
0.293339
0.293291
0.293247
0.293208
0.293172
0.29314
0.293111
0.293085
0.293062
0.293041
0.293022
0.293005
0.292991
0.292978
0.292967
0.292957
0.29295
0.292944
0.292939
0.292936
0.292935
0.292935
0.292936
0.292939
0.292944
0.29295
0.292957
0.292967
0.292978
0.292991
0.293005
0.293022
0.293041
0.293062
0.293085
0.293111
0.29314
0.293172
0.293208
0.293247
0.293291
0.293339
0.293393
0.293453
0.29352
0.293595
0.29368
0.293774
0.293881
0.294001
0.294136
0.294288
0.294458
0.294645
0.294848
0.295061
0.295273
0.295459
0.295557
0.29547
0.295272
0.29434
0.294538
0.294682
0.294709
0.294661
0.294574
0.294468
0.294352
0.294235
0.29412
0.294011
0.293908
0.293814
0.293727
0.293647
0.293575
0.293509
0.293449
0.293394
0.293344
0.293299
0.293258
0.29322
0.293187
0.293156
0.293128
0.293102
0.29308
0.293059
0.293041
0.293024
0.29301
0.292997
0.292986
0.292977
0.29297
0.292964
0.292959
0.292956
0.292955
0.292955
0.292956
0.292959
0.292964
0.29297
0.292977
0.292986
0.292997
0.29301
0.293024
0.293041
0.293059
0.29308
0.293102
0.293128
0.293156
0.293187
0.29322
0.293258
0.293299
0.293344
0.293394
0.293449
0.293509
0.293575
0.293647
0.293727
0.293814
0.293908
0.294011
0.29412
0.294235
0.294352
0.294468
0.294574
0.294661
0.294709
0.294682
0.294538
0.29434
0.293849
0.294005
0.294136
0.294198
0.294209
0.294187
0.294142
0.294082
0.294013
0.29394
0.293866
0.293793
0.293722
0.293655
0.293591
0.293532
0.293476
0.293425
0.293377
0.293333
0.293292
0.293255
0.293221
0.293189
0.293161
0.293134
0.293111
0.293089
0.29307
0.293052
0.293036
0.293023
0.29301
0.293
0.292991
0.292984
0.292978
0.292974
0.292971
0.292969
0.292969
0.292971
0.292974
0.292978
0.292984
0.292991
0.293
0.29301
0.293023
0.293036
0.293052
0.29307
0.293089
0.293111
0.293134
0.293161
0.293189
0.293221
0.293255
0.293292
0.293333
0.293377
0.293425
0.293476
0.293532
0.293591
0.293655
0.293722
0.293793
0.293866
0.29394
0.294013
0.294082
0.294142
0.294187
0.294209
0.294198
0.294136
0.294005
0.293849
0.293564
0.293679
0.293785
0.293851
0.293882
0.293889
0.293877
0.29385
0.293813
0.293769
0.293721
0.293671
0.293621
0.29357
0.293521
0.293474
0.293429
0.293387
0.293346
0.293309
0.293274
0.293241
0.29321
0.293182
0.293156
0.293132
0.293111
0.293091
0.293073
0.293056
0.293042
0.293029
0.293017
0.293008
0.292999
0.292992
0.292987
0.292983
0.29298
0.292979
0.292979
0.29298
0.292983
0.292987
0.292992
0.292999
0.293008
0.293017
0.293029
0.293042
0.293056
0.293073
0.293091
0.293111
0.293132
0.293156
0.293182
0.29321
0.293241
0.293274
0.293309
0.293346
0.293387
0.293429
0.293474
0.293521
0.29357
0.293621
0.293671
0.293721
0.293769
0.293813
0.29385
0.293877
0.293889
0.293882
0.293851
0.293785
0.293679
0.293564
0.29338
0.293466
0.293549
0.293607
0.293643
0.293661
0.293666
0.293658
0.293641
0.293616
0.293587
0.293554
0.293519
0.293482
0.293446
0.29341
0.293374
0.29334
0.293307
0.293276
0.293246
0.293218
0.293192
0.293167
0.293144
0.293123
0.293103
0.293086
0.293069
0.293054
0.293041
0.293029
0.293019
0.29301
0.293002
0.292995
0.29299
0.292986
0.292984
0.292983
0.292983
0.292984
0.292986
0.29299
0.292995
0.293002
0.29301
0.293019
0.293029
0.293041
0.293054
0.293069
0.293086
0.293103
0.293123
0.293144
0.293167
0.293192
0.293218
0.293246
0.293276
0.293307
0.29334
0.293374
0.29341
0.293446
0.293482
0.293519
0.293554
0.293587
0.293616
0.293641
0.293658
0.293666
0.293661
0.293643
0.293607
0.293549
0.293466
0.29338
0.293251
0.293316
0.293381
0.29343
0.293464
0.293487
0.293498
0.293501
0.293495
0.293483
0.293466
0.293445
0.293422
0.293397
0.29337
0.293343
0.293316
0.293289
0.293262
0.293237
0.293212
0.293189
0.293167
0.293146
0.293126
0.293107
0.29309
0.293074
0.29306
0.293047
0.293035
0.293024
0.293015
0.293006
0.292999
0.292993
0.292989
0.292985
0.292983
0.292982
0.292982
0.292983
0.292985
0.292989
0.292993
0.292999
0.293006
0.293015
0.293024
0.293035
0.293047
0.29306
0.293074
0.29309
0.293107
0.293126
0.293146
0.293167
0.293189
0.293212
0.293237
0.293262
0.293289
0.293316
0.293343
0.29337
0.293397
0.293422
0.293445
0.293466
0.293483
0.293495
0.293501
0.293498
0.293487
0.293464
0.29343
0.293381
0.293316
0.293251
0.293155
0.293205
0.293257
0.293297
0.293328
0.29335
0.293365
0.293372
0.293373
0.293369
0.29336
0.293348
0.293333
0.293316
0.293297
0.293277
0.293256
0.293236
0.293215
0.293195
0.293175
0.293156
0.293137
0.293119
0.293103
0.293087
0.293072
0.293059
0.293046
0.293034
0.293024
0.293014
0.293006
0.292999
0.292992
0.292987
0.292983
0.29298
0.292978
0.292977
0.292977
0.292978
0.29298
0.292983
0.292987
0.292992
0.292999
0.293006
0.293014
0.293024
0.293034
0.293046
0.293059
0.293072
0.293087
0.293103
0.293119
0.293137
0.293156
0.293175
0.293195
0.293215
0.293236
0.293256
0.293277
0.293297
0.293316
0.293333
0.293348
0.29336
0.293369
0.293373
0.293372
0.293365
0.29335
0.293328
0.293297
0.293257
0.293205
0.293155
0.293081
0.29312
0.293161
0.293195
0.293221
0.293242
0.293257
0.293266
0.293271
0.293271
0.293268
0.293261
0.293252
0.293241
0.293228
0.293214
0.293199
0.293183
0.293167
0.293151
0.293135
0.29312
0.293105
0.29309
0.293076
0.293063
0.29305
0.293039
0.293028
0.293018
0.293009
0.293001
0.292993
0.292987
0.292981
0.292977
0.292973
0.29297
0.292968
0.292968
0.292968
0.292968
0.29297
0.292973
0.292977
0.292981
0.292987
0.292993
0.293001
0.293009
0.293018
0.293028
0.293039
0.29305
0.293063
0.293076
0.29309
0.293105
0.29312
0.293135
0.293151
0.293167
0.293183
0.293199
0.293214
0.293228
0.293241
0.293252
0.293261
0.293268
0.293271
0.293271
0.293266
0.293257
0.293242
0.293221
0.293195
0.293161
0.29312
0.293081
0.293021
0.293052
0.293085
0.293113
0.293135
0.293154
0.293168
0.293178
0.293185
0.293188
0.293187
0.293185
0.29318
0.293172
0.293164
0.293154
0.293143
0.293131
0.293119
0.293107
0.293095
0.293082
0.29307
0.293058
0.293047
0.293036
0.293026
0.293016
0.293007
0.292998
0.29299
0.292983
0.292977
0.292972
0.292967
0.292963
0.29296
0.292957
0.292956
0.292955
0.292955
0.292956
0.292957
0.29296
0.292963
0.292967
0.292972
0.292977
0.292983
0.29299
0.292998
0.293007
0.293016
0.293026
0.293036
0.293047
0.293058
0.29307
0.293082
0.293095
0.293107
0.293119
0.293131
0.293143
0.293154
0.293164
0.293172
0.29318
0.293185
0.293187
0.293188
0.293185
0.293178
0.293168
0.293154
0.293135
0.293113
0.293085
0.293052
0.293021
0.292971
0.292996
0.293023
0.293046
0.293065
0.293081
0.293094
0.293104
0.293111
0.293115
0.293117
0.293117
0.293114
0.29311
0.293105
0.293098
0.29309
0.293082
0.293073
0.293064
0.293054
0.293045
0.293035
0.293025
0.293016
0.293007
0.292999
0.292991
0.292983
0.292976
0.292969
0.292963
0.292958
0.292953
0.292949
0.292946
0.292943
0.292941
0.29294
0.292939
0.292939
0.29294
0.292941
0.292943
0.292946
0.292949
0.292953
0.292958
0.292963
0.292969
0.292976
0.292983
0.292991
0.292999
0.293007
0.293016
0.293025
0.293035
0.293045
0.293054
0.293064
0.293073
0.293082
0.29309
0.293098
0.293105
0.29311
0.293114
0.293117
0.293117
0.293115
0.293111
0.293104
0.293094
0.293081
0.293065
0.293046
0.293023
0.292996
0.292971
0.292928
0.292948
0.29297
0.292989
0.293005
0.293019
0.293031
0.29304
0.293047
0.293052
0.293055
0.293056
0.293056
0.293054
0.29305
0.293046
0.293041
0.293035
0.293028
0.293021
0.293014
0.293007
0.292999
0.292992
0.292984
0.292977
0.29297
0.292964
0.292957
0.292952
0.292946
0.292941
0.292937
0.292933
0.292929
0.292926
0.292924
0.292922
0.292921
0.292921
0.292921
0.292921
0.292922
0.292924
0.292926
0.292929
0.292933
0.292937
0.292941
0.292946
0.292952
0.292957
0.292964
0.29297
0.292977
0.292984
0.292992
0.292999
0.293007
0.293014
0.293021
0.293028
0.293035
0.293041
0.293046
0.29305
0.293054
0.293056
0.293056
0.293055
0.293052
0.293047
0.29304
0.293031
0.293019
0.293005
0.292989
0.29297
0.292948
0.292928
0.29289
0.292907
0.292925
0.29294
0.292954
0.292966
0.292976
0.292985
0.292991
0.292996
0.293
0.293002
0.293002
0.293002
0.293
0.292998
0.292994
0.29299
0.292985
0.29298
0.292975
0.292969
0.292964
0.292958
0.292952
0.292946
0.292941
0.292935
0.29293
0.292926
0.292921
0.292917
0.292913
0.29291
0.292907
0.292905
0.292903
0.292902
0.292901
0.2929
0.2929
0.292901
0.292902
0.292903
0.292905
0.292907
0.29291
0.292913
0.292917
0.292921
0.292926
0.29293
0.292935
0.292941
0.292946
0.292952
0.292958
0.292964
0.292969
0.292975
0.29298
0.292985
0.29299
0.292994
0.292998
0.293
0.293002
0.293002
0.293002
0.293
0.292996
0.292991
0.292985
0.292976
0.292966
0.292954
0.29294
0.292925
0.292907
0.29289
0.292856
0.29287
0.292884
0.292897
0.292909
0.292919
0.292928
0.292935
0.292941
0.292946
0.29295
0.292953
0.292954
0.292954
0.292954
0.292952
0.29295
0.292948
0.292944
0.292941
0.292937
0.292933
0.292928
0.292924
0.292919
0.292915
0.29291
0.292906
0.292902
0.292898
0.292895
0.292891
0.292888
0.292886
0.292884
0.292882
0.29288
0.292879
0.292878
0.292878
0.292878
0.292878
0.292879
0.29288
0.292882
0.292884
0.292886
0.292888
0.292891
0.292895
0.292898
0.292902
0.292906
0.29291
0.292915
0.292919
0.292924
0.292928
0.292933
0.292937
0.292941
0.292944
0.292948
0.29295
0.292952
0.292954
0.292954
0.292954
0.292953
0.29295
0.292946
0.292941
0.292935
0.292928
0.292919
0.292909
0.292897
0.292884
0.29287
0.292856
0.292824
0.292835
0.292847
0.292858
0.292868
0.292877
0.292884
0.292891
0.292897
0.292901
0.292905
0.292907
0.292909
0.29291
0.29291
0.29291
0.292909
0.292907
0.292905
0.292902
0.2929
0.292897
0.292893
0.29289
0.292887
0.292883
0.29288
0.292877
0.292873
0.29287
0.292867
0.292865
0.292862
0.29286
0.292858
0.292857
0.292856
0.292855
0.292854
0.292854
0.292854
0.292854
0.292855
0.292856
0.292857
0.292858
0.29286
0.292862
0.292865
0.292867
0.29287
0.292873
0.292877
0.29288
0.292883
0.292887
0.29289
0.292893
0.292897
0.2929
0.292902
0.292905
0.292907
0.292909
0.29291
0.29291
0.29291
0.292909
0.292907
0.292905
0.292901
0.292897
0.292891
0.292884
0.292877
0.292868
0.292858
0.292847
0.292835
0.292824
0.292795
0.292804
0.292814
0.292823
0.292831
0.292838
0.292845
0.29285
0.292855
0.29286
0.292863
0.292866
0.292868
0.292869
0.29287
0.29287
0.292869
0.292869
0.292867
0.292866
0.292864
0.292861
0.292859
0.292857
0.292854
0.292852
0.292849
0.292846
0.292844
0.292842
0.292839
0.292837
0.292835
0.292834
0.292832
0.292831
0.29283
0.292829
0.292829
0.292828
0.292828
0.292829
0.292829
0.29283
0.292831
0.292832
0.292834
0.292835
0.292837
0.292839
0.292842
0.292844
0.292846
0.292849
0.292852
0.292854
0.292857
0.292859
0.292861
0.292864
0.292866
0.292867
0.292869
0.292869
0.29287
0.29287
0.292869
0.292868
0.292866
0.292863
0.29286
0.292855
0.29285
0.292845
0.292838
0.292831
0.292823
0.292814
0.292804
0.292795
0.292766
0.292774
0.292782
0.292789
0.292796
0.292802
0.292808
0.292813
0.292817
0.292821
0.292824
0.292827
0.292829
0.29283
0.292831
0.292832
0.292832
0.292832
0.292831
0.29283
0.292829
0.292827
0.292826
0.292824
0.292822
0.29282
0.292818
0.292816
0.292814
0.292812
0.292811
0.292809
0.292808
0.292806
0.292805
0.292804
0.292803
0.292803
0.292802
0.292802
0.292802
0.292802
0.292803
0.292803
0.292804
0.292805
0.292806
0.292808
0.292809
0.292811
0.292812
0.292814
0.292816
0.292818
0.29282
0.292822
0.292824
0.292826
0.292827
0.292829
0.29283
0.292831
0.292832
0.292832
0.292832
0.292831
0.29283
0.292829
0.292827
0.292824
0.292821
0.292817
0.292813
0.292808
0.292802
0.292796
0.292789
0.292782
0.292774
0.292766
0.292739
0.292745
0.292751
0.292757
0.292763
0.292768
0.292773
0.292778
0.292782
0.292785
0.292788
0.29279
0.292792
0.292794
0.292795
0.292796
0.292796
0.292796
0.292796
0.292795
0.292795
0.292794
0.292792
0.292791
0.29279
0.292789
0.292787
0.292786
0.292784
0.292783
0.292782
0.29278
0.292779
0.292778
0.292777
0.292777
0.292776
0.292775
0.292775
0.292775
0.292775
0.292775
0.292775
0.292776
0.292777
0.292777
0.292778
0.292779
0.29278
0.292782
0.292783
0.292784
0.292786
0.292787
0.292789
0.29279
0.292791
0.292792
0.292794
0.292795
0.292795
0.292796
0.292796
0.292796
0.292796
0.292795
0.292794
0.292792
0.29279
0.292788
0.292785
0.292782
0.292778
0.292773
0.292768
0.292763
0.292757
0.292751
0.292745
0.292739
0.292712
0.292717
0.292722
0.292727
0.292732
0.292736
0.29274
0.292744
0.292748
0.292751
0.292753
0.292755
0.292757
0.292759
0.29276
0.292761
0.292761
0.292762
0.292762
0.292762
0.292761
0.292761
0.29276
0.292759
0.292758
0.292757
0.292756
0.292755
0.292754
0.292753
0.292752
0.292751
0.292751
0.29275
0.292749
0.292749
0.292748
0.292748
0.292747
0.292747
0.292747
0.292747
0.292748
0.292748
0.292749
0.292749
0.29275
0.292751
0.292751
0.292752
0.292753
0.292754
0.292755
0.292756
0.292757
0.292758
0.292759
0.29276
0.292761
0.292761
0.292762
0.292762
0.292762
0.292761
0.292761
0.29276
0.292759
0.292757
0.292755
0.292753
0.292751
0.292748
0.292744
0.29274
0.292736
0.292732
0.292727
0.292722
0.292717
0.292712
0.292685
0.292689
0.292693
0.292698
0.292702
0.292705
0.292709
0.292712
0.292715
0.292718
0.29272
0.292722
0.292724
0.292725
0.292726
0.292727
0.292728
0.292729
0.292729
0.292729
0.292729
0.292728
0.292728
0.292728
0.292727
0.292726
0.292726
0.292725
0.292724
0.292724
0.292723
0.292722
0.292722
0.292721
0.292721
0.29272
0.29272
0.292719
0.292719
0.292719
0.292719
0.292719
0.292719
0.29272
0.29272
0.292721
0.292721
0.292722
0.292722
0.292723
0.292724
0.292724
0.292725
0.292726
0.292726
0.292727
0.292728
0.292728
0.292728
0.292729
0.292729
0.292729
0.292729
0.292728
0.292727
0.292726
0.292725
0.292724
0.292722
0.29272
0.292718
0.292715
0.292712
0.292709
0.292705
0.292702
0.292698
0.292693
0.292689
0.292685
0.292658
0.292662
0.292665
0.292669
0.292672
0.292675
0.292678
0.292681
0.292683
0.292686
0.292688
0.29269
0.292691
0.292693
0.292694
0.292695
0.292696
0.292696
0.292697
0.292697
0.292697
0.292697
0.292697
0.292696
0.292696
0.292696
0.292695
0.292695
0.292694
0.292694
0.292693
0.292693
0.292692
0.292692
0.292692
0.292691
0.292691
0.292691
0.292691
0.292691
0.292691
0.292691
0.292691
0.292691
0.292691
0.292692
0.292692
0.292692
0.292693
0.292693
0.292694
0.292694
0.292695
0.292695
0.292696
0.292696
0.292696
0.292697
0.292697
0.292697
0.292697
0.292697
0.292696
0.292696
0.292695
0.292694
0.292693
0.292691
0.29269
0.292688
0.292686
0.292683
0.292681
0.292678
0.292675
0.292672
0.292669
0.292665
0.292662
0.292658
0.292632
0.292635
0.292638
0.292641
0.292643
0.292646
0.292648
0.292651
0.292653
0.292655
0.292657
0.292658
0.29266
0.292661
0.292662
0.292663
0.292664
0.292664
0.292665
0.292665
0.292666
0.292666
0.292666
0.292666
0.292665
0.292665
0.292665
0.292665
0.292664
0.292664
0.292664
0.292663
0.292663
0.292663
0.292663
0.292662
0.292662
0.292662
0.292662
0.292662
0.292662
0.292662
0.292662
0.292662
0.292662
0.292663
0.292663
0.292663
0.292663
0.292664
0.292664
0.292664
0.292665
0.292665
0.292665
0.292665
0.292666
0.292666
0.292666
0.292666
0.292665
0.292665
0.292664
0.292664
0.292663
0.292662
0.292661
0.29266
0.292658
0.292657
0.292655
0.292653
0.292651
0.292648
0.292646
0.292643
0.292641
0.292638
0.292635
0.292632
0.292606
0.292608
0.29261
0.292613
0.292615
0.292617
0.292619
0.292621
0.292623
0.292625
0.292626
0.292628
0.292629
0.29263
0.292631
0.292632
0.292633
0.292633
0.292634
0.292634
0.292635
0.292635
0.292635
0.292635
0.292635
0.292635
0.292635
0.292635
0.292635
0.292634
0.292634
0.292634
0.292634
0.292634
0.292634
0.292633
0.292633
0.292633
0.292633
0.292633
0.292633
0.292633
0.292633
0.292633
0.292633
0.292634
0.292634
0.292634
0.292634
0.292634
0.292634
0.292635
0.292635
0.292635
0.292635
0.292635
0.292635
0.292635
0.292635
0.292635
0.292634
0.292634
0.292633
0.292633
0.292632
0.292631
0.29263
0.292629
0.292628
0.292626
0.292625
0.292623
0.292621
0.292619
0.292617
0.292615
0.292613
0.29261
0.292608
0.292606
0.292579
0.292581
0.292583
0.292585
0.292587
0.292589
0.29259
0.292592
0.292593
0.292595
0.292596
0.292598
0.292599
0.2926
0.292601
0.292602
0.292602
0.292603
0.292603
0.292604
0.292604
0.292604
0.292605
0.292605
0.292605
0.292605
0.292605
0.292605
0.292605
0.292605
0.292605
0.292605
0.292605
0.292604
0.292604
0.292604
0.292604
0.292604
0.292604
0.292604
0.292604
0.292604
0.292604
0.292604
0.292604
0.292604
0.292604
0.292605
0.292605
0.292605
0.292605
0.292605
0.292605
0.292605
0.292605
0.292605
0.292605
0.292605
0.292604
0.292604
0.292604
0.292603
0.292603
0.292602
0.292602
0.292601
0.2926
0.292599
0.292598
0.292596
0.292595
0.292593
0.292592
0.29259
0.292589
0.292587
0.292585
0.292583
0.292581
0.292579
0.292553
0.292554
0.292556
0.292557
0.292559
0.29256
0.292562
0.292563
0.292564
0.292566
0.292567
0.292568
0.292569
0.29257
0.292571
0.292571
0.292572
0.292573
0.292573
0.292574
0.292574
0.292574
0.292575
0.292575
0.292575
0.292575
0.292575
0.292575
0.292575
0.292575
0.292575
0.292575
0.292575
0.292575
0.292575
0.292575
0.292575
0.292575
0.292575
0.292575
0.292575
0.292575
0.292575
0.292575
0.292575
0.292575
0.292575
0.292575
0.292575
0.292575
0.292575
0.292575
0.292575
0.292575
0.292575
0.292575
0.292575
0.292575
0.292574
0.292574
0.292574
0.292573
0.292573
0.292572
0.292571
0.292571
0.29257
0.292569
0.292568
0.292567
0.292566
0.292564
0.292563
0.292562
0.29256
0.292559
0.292557
0.292556
0.292554
0.292553
0.292526
0.292527
0.292528
0.29253
0.292531
0.292532
0.292533
0.292534
0.292536
0.292537
0.292538
0.292539
0.292539
0.29254
0.292541
0.292542
0.292542
0.292543
0.292543
0.292544
0.292544
0.292545
0.292545
0.292545
0.292545
0.292545
0.292546
0.292546
0.292546
0.292546
0.292546
0.292546
0.292546
0.292546
0.292546
0.292546
0.292546
0.292546
0.292546
0.292546
0.292546
0.292546
0.292546
0.292546
0.292546
0.292546
0.292546
0.292546
0.292546
0.292546
0.292546
0.292546
0.292546
0.292546
0.292545
0.292545
0.292545
0.292545
0.292545
0.292544
0.292544
0.292543
0.292543
0.292542
0.292542
0.292541
0.29254
0.292539
0.292539
0.292538
0.292537
0.292536
0.292534
0.292533
0.292532
0.292531
0.29253
0.292528
0.292527
0.292526
0.292499
0.2925
0.292501
0.292502
0.292503
0.292504
0.292505
0.292506
0.292507
0.292508
0.292509
0.29251
0.29251
0.292511
0.292512
0.292512
0.292513
0.292513
0.292514
0.292514
0.292515
0.292515
0.292515
0.292516
0.292516
0.292516
0.292516
0.292516
0.292516
0.292516
0.292517
0.292517
0.292517
0.292517
0.292517
0.292517
0.292517
0.292517
0.292517
0.292517
0.292517
0.292517
0.292517
0.292517
0.292517
0.292517
0.292517
0.292517
0.292517
0.292517
0.292516
0.292516
0.292516
0.292516
0.292516
0.292516
0.292516
0.292515
0.292515
0.292515
0.292514
0.292514
0.292513
0.292513
0.292512
0.292512
0.292511
0.29251
0.29251
0.292509
0.292508
0.292507
0.292506
0.292505
0.292504
0.292503
0.292502
0.292501
0.2925
0.292499
0.292472
0.292473
0.292474
0.292474
0.292475
0.292476
0.292477
0.292478
0.292478
0.292479
0.29248
0.292481
0.292481
0.292482
0.292483
0.292483
0.292484
0.292484
0.292485
0.292485
0.292485
0.292486
0.292486
0.292486
0.292486
0.292487
0.292487
0.292487
0.292487
0.292487
0.292487
0.292487
0.292487
0.292487
0.292488
0.292488
0.292488
0.292488
0.292488
0.292488
0.292488
0.292488
0.292488
0.292488
0.292488
0.292488
0.292487
0.292487
0.292487
0.292487
0.292487
0.292487
0.292487
0.292487
0.292487
0.292486
0.292486
0.292486
0.292486
0.292485
0.292485
0.292485
0.292484
0.292484
0.292483
0.292483
0.292482
0.292481
0.292481
0.29248
0.292479
0.292478
0.292478
0.292477
0.292476
0.292475
0.292474
0.292474
0.292473
0.292472
0.292445
0.292445
0.292446
0.292447
0.292447
0.292448
0.292449
0.292449
0.29245
0.292451
0.292451
0.292452
0.292453
0.292453
0.292454
0.292454
0.292455
0.292455
0.292455
0.292456
0.292456
0.292456
0.292457
0.292457
0.292457
0.292457
0.292458
0.292458
0.292458
0.292458
0.292458
0.292458
0.292458
0.292458
0.292458
0.292458
0.292458
0.292458
0.292458
0.292458
0.292458
0.292458
0.292458
0.292458
0.292458
0.292458
0.292458
0.292458
0.292458
0.292458
0.292458
0.292458
0.292458
0.292458
0.292457
0.292457
0.292457
0.292457
0.292456
0.292456
0.292456
0.292455
0.292455
0.292455
0.292454
0.292454
0.292453
0.292453
0.292452
0.292451
0.292451
0.29245
0.292449
0.292449
0.292448
0.292447
0.292447
0.292446
0.292445
0.292445
0.292418
0.292418
0.292419
0.292419
0.29242
0.29242
0.292421
0.292421
0.292422
0.292422
0.292423
0.292423
0.292424
0.292424
0.292425
0.292425
0.292426
0.292426
0.292426
0.292427
0.292427
0.292427
0.292428
0.292428
0.292428
0.292428
0.292428
0.292429
0.292429
0.292429
0.292429
0.292429
0.292429
0.292429
0.292429
0.292429
0.292429
0.292429
0.292429
0.292429
0.292429
0.292429
0.292429
0.292429
0.292429
0.292429
0.292429
0.292429
0.292429
0.292429
0.292429
0.292429
0.292429
0.292428
0.292428
0.292428
0.292428
0.292428
0.292427
0.292427
0.292427
0.292426
0.292426
0.292426
0.292425
0.292425
0.292424
0.292424
0.292423
0.292423
0.292422
0.292422
0.292421
0.292421
0.29242
0.29242
0.292419
0.292419
0.292418
0.292418
0.29239
0.29239
0.292391
0.292391
0.292392
0.292392
0.292393
0.292393
0.292393
0.292394
0.292394
0.292395
0.292395
0.292396
0.292396
0.292396
0.292397
0.292397
0.292397
0.292398
0.292398
0.292398
0.292399
0.292399
0.292399
0.292399
0.292399
0.2924
0.2924
0.2924
0.2924
0.2924
0.2924
0.2924
0.2924
0.2924
0.2924
0.2924
0.2924
0.2924
0.2924
0.2924
0.2924
0.2924
0.2924
0.2924
0.2924
0.2924
0.2924
0.2924
0.2924
0.2924
0.2924
0.292399
0.292399
0.292399
0.292399
0.292399
0.292398
0.292398
0.292398
0.292397
0.292397
0.292397
0.292396
0.292396
0.292396
0.292395
0.292395
0.292394
0.292394
0.292393
0.292393
0.292393
0.292392
0.292392
0.292391
0.292391
0.29239
0.29239
0.292363
0.292363
0.292363
0.292363
0.292364
0.292364
0.292364
0.292365
0.292365
0.292366
0.292366
0.292366
0.292367
0.292367
0.292367
0.292368
0.292368
0.292368
0.292369
0.292369
0.292369
0.292369
0.29237
0.29237
0.29237
0.29237
0.29237
0.292371
0.292371
0.292371
0.292371
0.292371
0.292371
0.292371
0.292371
0.292371
0.292371
0.292371
0.292371
0.292371
0.292371
0.292371
0.292371
0.292371
0.292371
0.292371
0.292371
0.292371
0.292371
0.292371
0.292371
0.292371
0.292371
0.29237
0.29237
0.29237
0.29237
0.29237
0.292369
0.292369
0.292369
0.292369
0.292368
0.292368
0.292368
0.292367
0.292367
0.292367
0.292366
0.292366
0.292366
0.292365
0.292365
0.292364
0.292364
0.292364
0.292363
0.292363
0.292363
0.292363
0.292335
0.292335
0.292335
0.292336
0.292336
0.292336
0.292336
0.292337
0.292337
0.292337
0.292338
0.292338
0.292338
0.292338
0.292339
0.292339
0.292339
0.29234
0.29234
0.29234
0.29234
0.292341
0.292341
0.292341
0.292341
0.292341
0.292341
0.292342
0.292342
0.292342
0.292342
0.292342
0.292342
0.292342
0.292342
0.292342
0.292342
0.292342
0.292342
0.292342
0.292342
0.292342
0.292342
0.292342
0.292342
0.292342
0.292342
0.292342
0.292342
0.292342
0.292342
0.292342
0.292342
0.292341
0.292341
0.292341
0.292341
0.292341
0.292341
0.29234
0.29234
0.29234
0.29234
0.292339
0.292339
0.292339
0.292338
0.292338
0.292338
0.292338
0.292337
0.292337
0.292337
0.292336
0.292336
0.292336
0.292336
0.292335
0.292335
0.292335
0.292307
0.292307
0.292307
0.292308
0.292308
0.292308
0.292308
0.292308
0.292309
0.292309
0.292309
0.292309
0.29231
0.29231
0.29231
0.29231
0.292311
0.292311
0.292311
0.292311
0.292312
0.292312
0.292312
0.292312
0.292312
0.292312
0.292313
0.292313
0.292313
0.292313
0.292313
0.292313
0.292313
0.292313
0.292313
0.292313
0.292313
0.292313
0.292313
0.292313
0.292313
0.292313
0.292313
0.292313
0.292313
0.292313
0.292313
0.292313
0.292313
0.292313
0.292313
0.292313
0.292313
0.292313
0.292312
0.292312
0.292312
0.292312
0.292312
0.292312
0.292311
0.292311
0.292311
0.292311
0.29231
0.29231
0.29231
0.29231
0.292309
0.292309
0.292309
0.292309
0.292308
0.292308
0.292308
0.292308
0.292308
0.292307
0.292307
0.292307
0.292279
0.292279
0.292279
0.292279
0.29228
0.29228
0.29228
0.29228
0.29228
0.292281
0.292281
0.292281
0.292281
0.292281
0.292282
0.292282
0.292282
0.292282
0.292282
0.292283
0.292283
0.292283
0.292283
0.292283
0.292283
0.292284
0.292284
0.292284
0.292284
0.292284
0.292284
0.292284
0.292284
0.292284
0.292284
0.292284
0.292285
0.292285
0.292285
0.292285
0.292285
0.292285
0.292285
0.292285
0.292284
0.292284
0.292284
0.292284
0.292284
0.292284
0.292284
0.292284
0.292284
0.292284
0.292284
0.292283
0.292283
0.292283
0.292283
0.292283
0.292283
0.292282
0.292282
0.292282
0.292282
0.292282
0.292281
0.292281
0.292281
0.292281
0.292281
0.29228
0.29228
0.29228
0.29228
0.29228
0.292279
0.292279
0.292279
0.292279
0.292251
0.292251
0.292251
0.292251
0.292251
0.292252
0.292252
0.292252
0.292252
0.292252
0.292252
0.292253
0.292253
0.292253
0.292253
0.292253
0.292253
0.292254
0.292254
0.292254
0.292254
0.292254
0.292254
0.292255
0.292255
0.292255
0.292255
0.292255
0.292255
0.292255
0.292255
0.292255
0.292255
0.292256
0.292256
0.292256
0.292256
0.292256
0.292256
0.292256
0.292256
0.292256
0.292256
0.292256
0.292256
0.292256
0.292256
0.292255
0.292255
0.292255
0.292255
0.292255
0.292255
0.292255
0.292255
0.292255
0.292255
0.292254
0.292254
0.292254
0.292254
0.292254
0.292254
0.292253
0.292253
0.292253
0.292253
0.292253
0.292253
0.292252
0.292252
0.292252
0.292252
0.292252
0.292252
0.292251
0.292251
0.292251
0.292251
0.292251
0.292223
0.292223
0.292223
0.292223
0.292223
0.292223
0.292223
0.292224
0.292224
0.292224
0.292224
0.292224
0.292224
0.292224
0.292225
0.292225
0.292225
0.292225
0.292225
0.292225
0.292225
0.292226
0.292226
0.292226
0.292226
0.292226
0.292226
0.292226
0.292226
0.292226
0.292227
0.292227
0.292227
0.292227
0.292227
0.292227
0.292227
0.292227
0.292227
0.292227
0.292227
0.292227
0.292227
0.292227
0.292227
0.292227
0.292227
0.292227
0.292227
0.292227
0.292226
0.292226
0.292226
0.292226
0.292226
0.292226
0.292226
0.292226
0.292226
0.292225
0.292225
0.292225
0.292225
0.292225
0.292225
0.292225
0.292224
0.292224
0.292224
0.292224
0.292224
0.292224
0.292224
0.292223
0.292223
0.292223
0.292223
0.292223
0.292223
0.292223
0.292195
0.292195
0.292195
0.292195
0.292195
0.292195
0.292195
0.292195
0.292195
0.292195
0.292196
0.292196
0.292196
0.292196
0.292196
0.292196
0.292196
0.292196
0.292197
0.292197
0.292197
0.292197
0.292197
0.292197
0.292197
0.292197
0.292197
0.292198
0.292198
0.292198
0.292198
0.292198
0.292198
0.292198
0.292198
0.292198
0.292198
0.292198
0.292198
0.292198
0.292198
0.292198
0.292198
0.292198
0.292198
0.292198
0.292198
0.292198
0.292198
0.292198
0.292198
0.292198
0.292198
0.292197
0.292197
0.292197
0.292197
0.292197
0.292197
0.292197
0.292197
0.292197
0.292196
0.292196
0.292196
0.292196
0.292196
0.292196
0.292196
0.292196
0.292195
0.292195
0.292195
0.292195
0.292195
0.292195
0.292195
0.292195
0.292195
0.292195
0.292167
0.292167
0.292167
0.292167
0.292167
0.292167
0.292167
0.292167
0.292167
0.292167
0.292167
0.292167
0.292167
0.292167
0.292168
0.292168
0.292168
0.292168
0.292168
0.292168
0.292168
0.292168
0.292168
0.292168
0.292169
0.292169
0.292169
0.292169
0.292169
0.292169
0.292169
0.292169
0.292169
0.292169
0.292169
0.292169
0.292169
0.292169
0.292169
0.292169
0.292169
0.292169
0.292169
0.292169
0.292169
0.292169
0.292169
0.292169
0.292169
0.292169
0.292169
0.292169
0.292169
0.292169
0.292169
0.292169
0.292168
0.292168
0.292168
0.292168
0.292168
0.292168
0.292168
0.292168
0.292168
0.292168
0.292167
0.292167
0.292167
0.292167
0.292167
0.292167
0.292167
0.292167
0.292167
0.292167
0.292167
0.292167
0.292167
0.292167
0.292138
0.292138
0.292138
0.292138
0.292138
0.292138
0.292138
0.292139
0.292139
0.292139
0.292139
0.292139
0.292139
0.292139
0.292139
0.292139
0.292139
0.292139
0.292139
0.29214
0.29214
0.29214
0.29214
0.29214
0.29214
0.29214
0.29214
0.29214
0.29214
0.29214
0.29214
0.29214
0.29214
0.29214
0.29214
0.292141
0.292141
0.292141
0.292141
0.292141
0.292141
0.292141
0.292141
0.292141
0.292141
0.29214
0.29214
0.29214
0.29214
0.29214
0.29214
0.29214
0.29214
0.29214
0.29214
0.29214
0.29214
0.29214
0.29214
0.29214
0.29214
0.292139
0.292139
0.292139
0.292139
0.292139
0.292139
0.292139
0.292139
0.292139
0.292139
0.292139
0.292139
0.292138
0.292138
0.292138
0.292138
0.292138
0.292138
0.292138
0.29211
0.29211
0.29211
0.29211
0.29211
0.29211
0.29211
0.29211
0.29211
0.29211
0.29211
0.29211
0.29211
0.29211
0.292111
0.292111
0.292111
0.292111
0.292111
0.292111
0.292111