/*--------------------------------*- C++ -*----------------------------------*\
  =========                 |
  \\      /  F ield         | OpenFOAM: The Open Source CFD Toolbox
   \\    /   O peration     | Website:  https://openfoam.org
    \\  /    A nd           | Version:  11
     \\/     M anipulation  |
\*---------------------------------------------------------------------------*/
FoamFile
{
    format      ascii;
    class       volScalarField;
    location    "623";
    object      p;
}
// * * * * * * * * * * * * * * * * * * * * * * * * * * * * * * * * * * * * * //

dimensions      [0 2 -2 0 0 0 0];

internalField   nonuniform List<scalar> 
427520
(
0.543596
0.538569
0.535236
0.533413
0.532238
0.531392
0.53077
0.530309
0.52996
0.529689
0.529475
0.529301
0.529158
0.529038
0.528936
0.528849
0.528773
0.528706
0.528647
0.528595
0.528548
0.528506
0.528469
0.528435
0.528405
0.528377
0.528353
0.528331
0.528311
0.528293
0.528277
0.528264
0.528251
0.528241
0.528232
0.528225
0.528219
0.528215
0.528212
0.528211
0.528211
0.528212
0.528215
0.528219
0.528225
0.528232
0.528241
0.528251
0.528264
0.528277
0.528293
0.528311
0.528331
0.528353
0.528377
0.528405
0.528435
0.528469
0.528506
0.528548
0.528595
0.528647
0.528706
0.528773
0.528849
0.528936
0.529038
0.529158
0.529301
0.529475
0.529689
0.52996
0.530309
0.53077
0.531392
0.532238
0.533413
0.535236
0.538569
0.543596
0.534065
0.533483
0.532774
0.5321
0.531508
0.531005
0.530585
0.530239
0.529954
0.529718
0.529521
0.529356
0.529215
0.529096
0.528992
0.528902
0.528824
0.528755
0.528693
0.528639
0.52859
0.528547
0.528507
0.528472
0.528441
0.528412
0.528386
0.528363
0.528343
0.528324
0.528308
0.528294
0.528281
0.52827
0.528261
0.528254
0.528248
0.528243
0.52824
0.528239
0.528239
0.52824
0.528243
0.528248
0.528254
0.528261
0.52827
0.528281
0.528294
0.528308
0.528324
0.528343
0.528363
0.528386
0.528412
0.528441
0.528472
0.528507
0.528547
0.52859
0.528639
0.528693
0.528755
0.528824
0.528902
0.528992
0.529096
0.529215
0.529356
0.529521
0.529718
0.529954
0.530239
0.530585
0.531005
0.531508
0.5321
0.532774
0.533483
0.534065
0.531133
0.531299
0.531318
0.531133
0.530864
0.530584
0.530318
0.530075
0.529858
0.529667
0.529499
0.529353
0.529226
0.529114
0.529016
0.528929
0.528852
0.528784
0.528723
0.528669
0.52862
0.528576
0.528537
0.528501
0.528469
0.52844
0.528414
0.528391
0.52837
0.528351
0.528334
0.528319
0.528307
0.528296
0.528286
0.528279
0.528273
0.528268
0.528265
0.528264
0.528264
0.528265
0.528268
0.528273
0.528279
0.528286
0.528296
0.528307
0.528319
0.528334
0.528351
0.52837
0.528391
0.528414
0.52844
0.528469
0.528501
0.528537
0.528576
0.52862
0.528669
0.528723
0.528784
0.528852
0.528929
0.529016
0.529114
0.529226
0.529353
0.529499
0.529667
0.529858
0.530075
0.530318
0.530584
0.530864
0.531133
0.531318
0.531299
0.531133
0.53002
0.53024
0.53038
0.530367
0.530269
0.530133
0.529982
0.529828
0.529678
0.529538
0.529409
0.529291
0.529184
0.529088
0.529001
0.528923
0.528853
0.528789
0.528732
0.52868
0.528633
0.528591
0.528553
0.528518
0.528486
0.528458
0.528432
0.528409
0.528388
0.52837
0.528353
0.528339
0.528326
0.528315
0.528306
0.528298
0.528292
0.528288
0.528285
0.528283
0.528283
0.528285
0.528288
0.528292
0.528298
0.528306
0.528315
0.528326
0.528339
0.528353
0.52837
0.528388
0.528409
0.528432
0.528458
0.528486
0.528518
0.528553
0.528591
0.528633
0.52868
0.528732
0.528789
0.528853
0.528923
0.529001
0.529088
0.529184
0.529291
0.529409
0.529538
0.529678
0.529828
0.529982
0.530133
0.530269
0.530367
0.53038
0.53024
0.53002
0.529428
0.529617
0.529763
0.529814
0.529799
0.529746
0.529669
0.529578
0.529482
0.529385
0.529291
0.5292
0.529115
0.529036
0.528963
0.528896
0.528834
0.528777
0.528725
0.528678
0.528634
0.528595
0.528558
0.528526
0.528496
0.528468
0.528444
0.528421
0.528401
0.528383
0.528367
0.528353
0.52834
0.52833
0.528321
0.528313
0.528307
0.528303
0.5283
0.528298
0.528298
0.5283
0.528303
0.528307
0.528313
0.528321
0.52833
0.52834
0.528353
0.528367
0.528383
0.528401
0.528421
0.528444
0.528468
0.528496
0.528526
0.528558
0.528595
0.528634
0.528678
0.528725
0.528777
0.528834
0.528896
0.528963
0.529036
0.529115
0.5292
0.529291
0.529385
0.529482
0.529578
0.529669
0.529746
0.529799
0.529814
0.529763
0.529617
0.529428
0.529083
0.529229
0.529356
0.529423
0.529444
0.529434
0.529401
0.529352
0.529294
0.52923
0.529163
0.529097
0.529032
0.528969
0.52891
0.528853
0.528801
0.528752
0.528706
0.528664
0.528625
0.528589
0.528555
0.528525
0.528497
0.528472
0.528448
0.528427
0.528408
0.528391
0.528375
0.528362
0.52835
0.52834
0.528331
0.528324
0.528318
0.528314
0.528311
0.528309
0.528309
0.528311
0.528314
0.528318
0.528324
0.528331
0.52834
0.52835
0.528362
0.528375
0.528391
0.528408
0.528427
0.528448
0.528472
0.528497
0.528525
0.528555
0.528589
0.528625
0.528664
0.528706
0.528752
0.528801
0.528853
0.52891
0.528969
0.529032
0.529097
0.529163
0.52923
0.529294
0.529352
0.529401
0.529434
0.529444
0.529423
0.529356
0.529229
0.529083
0.528863
0.528974
0.529077
0.529143
0.529177
0.529187
0.529179
0.529156
0.529123
0.529083
0.529038
0.528991
0.528943
0.528895
0.528847
0.528802
0.528758
0.528717
0.528678
0.528641
0.528607
0.528575
0.528545
0.528517
0.528492
0.528468
0.528447
0.528427
0.528409
0.528393
0.528379
0.528366
0.528355
0.528345
0.528337
0.52833
0.528325
0.52832
0.528318
0.528316
0.528316
0.528318
0.52832
0.528325
0.52833
0.528337
0.528345
0.528355
0.528366
0.528379
0.528393
0.528409
0.528427
0.528447
0.528468
0.528492
0.528517
0.528545
0.528575
0.528607
0.528641
0.528678
0.528717
0.528758
0.528802
0.528847
0.528895
0.528943
0.528991
0.529038
0.529083
0.529123
0.529156
0.529179
0.529187
0.529177
0.529143
0.529077
0.528974
0.528863
0.52871
0.528795
0.528878
0.528936
0.528973
0.528993
0.528998
0.528991
0.528974
0.52895
0.528921
0.528889
0.528854
0.528818
0.528781
0.528745
0.52871
0.528676
0.528643
0.528612
0.528582
0.528554
0.528528
0.528504
0.528481
0.52846
0.52844
0.528422
0.528406
0.528391
0.528378
0.528366
0.528356
0.528346
0.528339
0.528332
0.528327
0.528323
0.528321
0.52832
0.52832
0.528321
0.528323
0.528327
0.528332
0.528339
0.528346
0.528356
0.528366
0.528378
0.528391
0.528406
0.528422
0.52844
0.52846
0.528481
0.528504
0.528528
0.528554
0.528582
0.528612
0.528643
0.528676
0.52871
0.528745
0.528781
0.528818
0.528854
0.528889
0.528921
0.52895
0.528974
0.528991
0.528998
0.528993
0.528973
0.528936
0.528878
0.528795
0.52871
0.528597
0.528664
0.528731
0.528781
0.528816
0.528839
0.52885
0.528852
0.528846
0.528833
0.528815
0.528794
0.528769
0.528743
0.528715
0.528687
0.528659
0.528631
0.528604
0.528578
0.528553
0.528529
0.528507
0.528485
0.528465
0.528446
0.528429
0.528413
0.528398
0.528385
0.528373
0.528362
0.528352
0.528344
0.528337
0.528331
0.528326
0.528323
0.52832
0.528319
0.528319
0.52832
0.528323
0.528326
0.528331
0.528337
0.528344
0.528352
0.528362
0.528373
0.528385
0.528398
0.528413
0.528429
0.528446
0.528465
0.528485
0.528507
0.528529
0.528553
0.528578
0.528604
0.528631
0.528659
0.528687
0.528715
0.528743
0.528769
0.528794
0.528815
0.528833
0.528846
0.528852
0.52885
0.528839
0.528816
0.528781
0.528731
0.528664
0.528597
0.52851
0.528563
0.528618
0.52866
0.528692
0.528715
0.528729
0.528736
0.528736
0.528731
0.528721
0.528707
0.52869
0.528671
0.528651
0.528629
0.528607
0.528585
0.528563
0.528542
0.528521
0.528501
0.528481
0.528463
0.528446
0.528429
0.528414
0.5284
0.528387
0.528375
0.528364
0.528354
0.528345
0.528338
0.528331
0.528326
0.528322
0.528318
0.528316
0.528315
0.528315
0.528316
0.528318
0.528322
0.528326
0.528331
0.528338
0.528345
0.528354
0.528364
0.528375
0.528387
0.5284
0.528414
0.528429
0.528446
0.528463
0.528481
0.528501
0.528521
0.528542
0.528563
0.528585
0.528607
0.528629
0.528651
0.528671
0.52869
0.528707
0.528721
0.528731
0.528736
0.528736
0.528729
0.528715
0.528692
0.52866
0.528618
0.528563
0.52851
0.528441
0.528484
0.528528
0.528564
0.528593
0.528614
0.528629
0.528638
0.528642
0.528642
0.528637
0.528628
0.528617
0.528604
0.528589
0.528573
0.528556
0.528539
0.528522
0.528504
0.528487
0.52847
0.528454
0.528438
0.528423
0.528409
0.528396
0.528383
0.528372
0.528361
0.528352
0.528343
0.528335
0.528329
0.528323
0.528318
0.528314
0.528311
0.528309
0.528308
0.528308
0.528309
0.528311
0.528314
0.528318
0.528323
0.528329
0.528335
0.528343
0.528352
0.528361
0.528372
0.528383
0.528396
0.528409
0.528423
0.528438
0.528454
0.52847
0.528487
0.528504
0.528522
0.528539
0.528556
0.528573
0.528589
0.528604
0.528617
0.528628
0.528637
0.528642
0.528642
0.528638
0.528629
0.528614
0.528593
0.528564
0.528528
0.528484
0.528441
0.528384
0.52842
0.528456
0.528486
0.528511
0.528531
0.528545
0.528556
0.528562
0.528564
0.528562
0.528558
0.528551
0.528542
0.528532
0.52852
0.528507
0.528494
0.52848
0.528466
0.528452
0.528438
0.528424
0.528411
0.528399
0.528387
0.528375
0.528364
0.528355
0.528345
0.528337
0.528329
0.528322
0.528317
0.528311
0.528307
0.528304
0.528301
0.528299
0.528299
0.528299
0.528299
0.528301
0.528304
0.528307
0.528311
0.528317
0.528322
0.528329
0.528337
0.528345
0.528355
0.528364
0.528375
0.528387
0.528399
0.528411
0.528424
0.528438
0.528452
0.528466
0.52848
0.528494
0.528507
0.52852
0.528532
0.528542
0.528551
0.528558
0.528562
0.528564
0.528562
0.528556
0.528545
0.528531
0.528511
0.528486
0.528456
0.52842
0.528384
0.528337
0.528366
0.528396
0.528422
0.528443
0.52846
0.528474
0.528485
0.528492
0.528495
0.528496
0.528495
0.528491
0.528485
0.528478
0.528469
0.52846
0.528449
0.528439
0.528428
0.528416
0.528405
0.528394
0.528383
0.528373
0.528362
0.528353
0.528344
0.528335
0.528327
0.52832
0.528313
0.528307
0.528302
0.528298
0.528294
0.528291
0.528289
0.528287
0.528286
0.528286
0.528287
0.528289
0.528291
0.528294
0.528298
0.528302
0.528307
0.528313
0.52832
0.528327
0.528335
0.528344
0.528353
0.528362
0.528373
0.528383
0.528394
0.528405
0.528416
0.528428
0.528439
0.528449
0.52846
0.528469
0.528478
0.528485
0.528491
0.528495
0.528496
0.528495
0.528492
0.528485
0.528474
0.52846
0.528443
0.528422
0.528396
0.528366
0.528337
0.528296
0.52832
0.528345
0.528366
0.528385
0.5284
0.528413
0.528423
0.52843
0.528435
0.528437
0.528437
0.528436
0.528432
0.528427
0.528422
0.528415
0.528407
0.528399
0.52839
0.528381
0.528372
0.528363
0.528354
0.528345
0.528337
0.528329
0.528321
0.528314
0.528307
0.528301
0.528295
0.52829
0.528285
0.528282
0.528278
0.528276
0.528274
0.528272
0.528272
0.528272
0.528272
0.528274
0.528276
0.528278
0.528282
0.528285
0.52829
0.528295
0.528301
0.528307
0.528314
0.528321
0.528329
0.528337
0.528345
0.528354
0.528363
0.528372
0.528381
0.52839
0.528399
0.528407
0.528415
0.528422
0.528427
0.528432
0.528436
0.528437
0.528437
0.528435
0.52843
0.528423
0.528413
0.5284
0.528385
0.528366
0.528345
0.52832
0.528296
0.528259
0.528279
0.5283
0.528319
0.528335
0.528348
0.52836
0.528369
0.528376
0.528381
0.528384
0.528386
0.528385
0.528384
0.528381
0.528377
0.528372
0.528366
0.52836
0.528353
0.528346
0.528339
0.528332
0.528325
0.528317
0.52831
0.528304
0.528297
0.528291
0.528285
0.52828
0.528275
0.528271
0.528267
0.528264
0.528261
0.528259
0.528257
0.528256
0.528255
0.528255
0.528256
0.528257
0.528259
0.528261
0.528264
0.528267
0.528271
0.528275
0.52828
0.528285
0.528291
0.528297
0.528304
0.52831
0.528317
0.528325
0.528332
0.528339
0.528346
0.528353
0.52836
0.528366
0.528372
0.528377
0.528381
0.528384
0.528385
0.528386
0.528384
0.528381
0.528376
0.528369
0.52836
0.528348
0.528335
0.528319
0.5283
0.528279
0.528259
0.528227
0.528243
0.528261
0.528277
0.52829
0.528302
0.528313
0.528321
0.528328
0.528333
0.528337
0.528339
0.528339
0.528339
0.528337
0.528335
0.528331
0.528327
0.528323
0.528318
0.528312
0.528306
0.528301
0.528295
0.528289
0.528283
0.528278
0.528273
0.528268
0.528263
0.528258
0.528254
0.528251
0.528247
0.528244
0.528242
0.52824
0.528239
0.528238
0.528237
0.528237
0.528238
0.528239
0.52824
0.528242
0.528244
0.528247
0.528251
0.528254
0.528258
0.528263
0.528268
0.528273
0.528278
0.528283
0.528289
0.528295
0.528301
0.528306
0.528312
0.528318
0.528323
0.528327
0.528331
0.528335
0.528337
0.528339
0.528339
0.528339
0.528337
0.528333
0.528328
0.528321
0.528313
0.528302
0.52829
0.528277
0.528261
0.528243
0.528227
0.528197
0.528211
0.528226
0.528239
0.528251
0.528261
0.52827
0.528278
0.528284
0.528289
0.528293
0.528295
0.528297
0.528297
0.528296
0.528295
0.528293
0.52829
0.528287
0.528283
0.528279
0.528274
0.52827
0.528265
0.528261
0.528256
0.528252
0.528247
0.528243
0.528239
0.528235
0.528232
0.528229
0.528226
0.528224
0.528222
0.52822
0.528219
0.528218
0.528218
0.528218
0.528218
0.528219
0.52822
0.528222
0.528224
0.528226
0.528229
0.528232
0.528235
0.528239
0.528243
0.528247
0.528252
0.528256
0.528261
0.528265
0.52827
0.528274
0.528279
0.528283
0.528287
0.52829
0.528293
0.528295
0.528296
0.528297
0.528297
0.528295
0.528293
0.528289
0.528284
0.528278
0.52827
0.528261
0.528251
0.528239
0.528226
0.528211
0.528197
0.528169
0.528181
0.528193
0.528205
0.528215
0.528224
0.528232
0.528239
0.528244
0.528249
0.528253
0.528256
0.528257
0.528258
0.528258
0.528258
0.528256
0.528254
0.528252
0.528249
0.528246
0.528243
0.528239
0.528236
0.528232
0.528228
0.528225
0.528221
0.528218
0.528215
0.528212
0.528209
0.528206
0.528204
0.528202
0.5282
0.528199
0.528198
0.528197
0.528197
0.528197
0.528197
0.528198
0.528199
0.5282
0.528202
0.528204
0.528206
0.528209
0.528212
0.528215
0.528218
0.528221
0.528225
0.528228
0.528232
0.528236
0.528239
0.528243
0.528246
0.528249
0.528252
0.528254
0.528256
0.528258
0.528258
0.528258
0.528257
0.528256
0.528253
0.528249
0.528244
0.528239
0.528232
0.528224
0.528215
0.528205
0.528193
0.528181
0.528169
0.528143
0.528153
0.528163
0.528173
0.528181
0.528189
0.528196
0.528202
0.528208
0.528212
0.528216
0.528218
0.52822
0.528222
0.528222
0.528222
0.528221
0.52822
0.528219
0.528217
0.528214
0.528212
0.528209
0.528207
0.528204
0.528201
0.528198
0.528195
0.528192
0.52819
0.528187
0.528185
0.528183
0.528181
0.52818
0.528178
0.528177
0.528176
0.528176
0.528175
0.528175
0.528176
0.528176
0.528177
0.528178
0.52818
0.528181
0.528183
0.528185
0.528187
0.52819
0.528192
0.528195
0.528198
0.528201
0.528204
0.528207
0.528209
0.528212
0.528214
0.528217
0.528219
0.52822
0.528221
0.528222
0.528222
0.528222
0.52822
0.528218
0.528216
0.528212
0.528208
0.528202
0.528196
0.528189
0.528181
0.528173
0.528163
0.528153
0.528143
0.528118
0.528126
0.528135
0.528143
0.52815
0.528157
0.528163
0.528169
0.528173
0.528177
0.528181
0.528183
0.528186
0.528187
0.528188
0.528188
0.528188
0.528187
0.528186
0.528185
0.528184
0.528182
0.52818
0.528178
0.528176
0.528173
0.528171
0.528169
0.528167
0.528165
0.528163
0.528161
0.528159
0.528158
0.528156
0.528155
0.528154
0.528153
0.528153
0.528153
0.528153
0.528153
0.528153
0.528154
0.528155
0.528156
0.528158
0.528159
0.528161
0.528163
0.528165
0.528167
0.528169
0.528171
0.528173
0.528176
0.528178
0.52818
0.528182
0.528184
0.528185
0.528186
0.528187
0.528188
0.528188
0.528188
0.528187
0.528186
0.528183
0.528181
0.528177
0.528173
0.528169
0.528163
0.528157
0.52815
0.528143
0.528135
0.528126
0.528118
0.528093
0.5281
0.528108
0.528114
0.528121
0.528127
0.528132
0.528137
0.528141
0.528145
0.528148
0.52815
0.528153
0.528154
0.528155
0.528156
0.528156
0.528156
0.528155
0.528154
0.528153
0.528152
0.528151
0.528149
0.528148
0.528146
0.528144
0.528142
0.528141
0.528139
0.528137
0.528136
0.528135
0.528133
0.528132
0.528131
0.528131
0.52813
0.52813
0.52813
0.52813
0.52813
0.52813
0.528131
0.528131
0.528132
0.528133
0.528135
0.528136
0.528137
0.528139
0.528141
0.528142
0.528144
0.528146
0.528148
0.528149
0.528151
0.528152
0.528153
0.528154
0.528155
0.528156
0.528156
0.528156
0.528155
0.528154
0.528153
0.52815
0.528148
0.528145
0.528141
0.528137
0.528132
0.528127
0.528121
0.528114
0.528108
0.5281
0.528093
0.528069
0.528075
0.528081
0.528087
0.528093
0.528098
0.528102
0.528107
0.52811
0.528114
0.528117
0.528119
0.528121
0.528123
0.528124
0.528125
0.528125
0.528125
0.528125
0.528125
0.528124
0.528123
0.528122
0.528121
0.52812
0.528118
0.528117
0.528116
0.528115
0.528113
0.528112
0.528111
0.52811
0.528109
0.528108
0.528107
0.528107
0.528106
0.528106
0.528106
0.528106
0.528106
0.528106
0.528107
0.528107
0.528108
0.528109
0.52811
0.528111
0.528112
0.528113
0.528115
0.528116
0.528117
0.528118
0.52812
0.528121
0.528122
0.528123
0.528124
0.528125
0.528125
0.528125
0.528125
0.528125
0.528124
0.528123
0.528121
0.528119
0.528117
0.528114
0.52811
0.528107
0.528102
0.528098
0.528093
0.528087
0.528081
0.528075
0.528069
0.528046
0.528051
0.528056
0.528061
0.528066
0.52807
0.528074
0.528078
0.528081
0.528084
0.528087
0.528089
0.528091
0.528092
0.528094
0.528094
0.528095
0.528095
0.528095
0.528095
0.528095
0.528094
0.528094
0.528093
0.528092
0.528091
0.52809
0.528089
0.528088
0.528087
0.528087
0.528086
0.528085
0.528084
0.528083
0.528083
0.528082
0.528082
0.528082
0.528082
0.528082
0.528082
0.528082
0.528082
0.528083
0.528083
0.528084
0.528085
0.528086
0.528087
0.528087
0.528088
0.528089
0.52809
0.528091
0.528092
0.528093
0.528094
0.528094
0.528095
0.528095
0.528095
0.528095
0.528095
0.528094
0.528094
0.528092
0.528091
0.528089
0.528087
0.528084
0.528081
0.528078
0.528074
0.52807
0.528066
0.528061
0.528056
0.528051
0.528046
0.528023
0.528027
0.528031
0.528035
0.528039
0.528043
0.528047
0.52805
0.528053
0.528055
0.528058
0.52806
0.528062
0.528063
0.528064
0.528065
0.528066
0.528066
0.528067
0.528067
0.528067
0.528066
0.528066
0.528066
0.528065
0.528064
0.528064
0.528063
0.528062
0.528062
0.528061
0.52806
0.52806
0.528059
0.528058
0.528058
0.528058
0.528057
0.528057
0.528057
0.528057
0.528057
0.528057
0.528058
0.528058
0.528058
0.528059
0.52806
0.52806
0.528061
0.528062
0.528062
0.528063
0.528064
0.528064
0.528065
0.528066
0.528066
0.528066
0.528067
0.528067
0.528067
0.528066
0.528066
0.528065
0.528064
0.528063
0.528062
0.52806
0.528058
0.528055
0.528053
0.52805
0.528047
0.528043
0.528039
0.528035
0.528031
0.528027
0.528023
0.528
0.528003
0.528007
0.52801
0.528014
0.528017
0.52802
0.528023
0.528025
0.528028
0.52803
0.528032
0.528033
0.528035
0.528036
0.528037
0.528038
0.528038
0.528039
0.528039
0.528039
0.528039
0.528039
0.528038
0.528038
0.528038
0.528037
0.528037
0.528036
0.528036
0.528035
0.528035
0.528034
0.528034
0.528033
0.528033
0.528033
0.528033
0.528032
0.528032
0.528032
0.528032
0.528033
0.528033
0.528033
0.528033
0.528034
0.528034
0.528035
0.528035
0.528036
0.528036
0.528037
0.528037
0.528038
0.528038
0.528038
0.528039
0.528039
0.528039
0.528039
0.528039
0.528038
0.528038
0.528037
0.528036
0.528035
0.528033
0.528032
0.52803
0.528028
0.528025
0.528023
0.52802
0.528017
0.528014
0.52801
0.528007
0.528003
0.528
0.527977
0.527979
0.527983
0.527986
0.527988
0.527991
0.527994
0.527996
0.527998
0.528001
0.528002
0.528004
0.528006
0.528007
0.528008
0.528009
0.52801
0.52801
0.528011
0.528011
0.528011
0.528012
0.528011
0.528011
0.528011
0.528011
0.528011
0.52801
0.52801
0.52801
0.528009
0.528009
0.528009
0.528008
0.528008
0.528008
0.528008
0.528007
0.528007
0.528007
0.528007
0.528007
0.528007
0.528008
0.528008
0.528008
0.528008
0.528009
0.528009
0.528009
0.52801
0.52801
0.52801
0.528011
0.528011
0.528011
0.528011
0.528011
0.528012
0.528011
0.528011
0.528011
0.52801
0.52801
0.528009
0.528008
0.528007
0.528006
0.528004
0.528002
0.528001
0.527998
0.527996
0.527994
0.527991
0.527988
0.527986
0.527983
0.527979
0.527977
0.527954
0.527956
0.527959
0.527961
0.527964
0.527966
0.527968
0.52797
0.527972
0.527974
0.527976
0.527977
0.527979
0.52798
0.527981
0.527982
0.527983
0.527983
0.527984
0.527984
0.527984
0.527985
0.527985
0.527985
0.527985
0.527985
0.527984
0.527984
0.527984
0.527984
0.527984
0.527983
0.527983
0.527983
0.527983
0.527983
0.527982
0.527982
0.527982
0.527982
0.527982
0.527982
0.527982
0.527982
0.527983
0.527983
0.527983
0.527983
0.527983
0.527984
0.527984
0.527984
0.527984
0.527984
0.527985
0.527985
0.527985
0.527985
0.527985
0.527984
0.527984
0.527984
0.527983
0.527983
0.527982
0.527981
0.52798
0.527979
0.527977
0.527976
0.527974
0.527972
0.52797
0.527968
0.527966
0.527964
0.527961
0.527959
0.527956
0.527954
0.527931
0.527933
0.527935
0.527937
0.527939
0.527941
0.527943
0.527945
0.527946
0.527948
0.527949
0.527951
0.527952
0.527953
0.527954
0.527955
0.527956
0.527956
0.527957
0.527957
0.527958
0.527958
0.527958
0.527958
0.527958
0.527958
0.527958
0.527958
0.527958
0.527958
0.527958
0.527958
0.527958
0.527957
0.527957
0.527957
0.527957
0.527957
0.527957
0.527957
0.527957
0.527957
0.527957
0.527957
0.527957
0.527957
0.527957
0.527958
0.527958
0.527958
0.527958
0.527958
0.527958
0.527958
0.527958
0.527958
0.527958
0.527958
0.527958
0.527958
0.527957
0.527957
0.527956
0.527956
0.527955
0.527954
0.527953
0.527952
0.527951
0.527949
0.527948
0.527946
0.527945
0.527943
0.527941
0.527939
0.527937
0.527935
0.527933
0.527931
0.527908
0.527909
0.527911
0.527913
0.527915
0.527916
0.527918
0.527919
0.527921
0.527922
0.527924
0.527925
0.527926
0.527927
0.527928
0.527929
0.527929
0.52793
0.52793
0.527931
0.527931
0.527932
0.527932
0.527932
0.527932
0.527932
0.527932
0.527932
0.527932
0.527932
0.527932
0.527932
0.527932
0.527932
0.527932
0.527932
0.527932
0.527932
0.527932
0.527932
0.527932
0.527932
0.527932
0.527932
0.527932
0.527932
0.527932
0.527932
0.527932
0.527932
0.527932
0.527932
0.527932
0.527932
0.527932
0.527932
0.527932
0.527932
0.527932
0.527931
0.527931
0.52793
0.52793
0.527929
0.527929
0.527928
0.527927
0.527926
0.527925
0.527924
0.527922
0.527921
0.527919
0.527918
0.527916
0.527915
0.527913
0.527911
0.527909
0.527908
0.527884
0.527886
0.527887
0.527889
0.52789
0.527892
0.527893
0.527894
0.527896
0.527897
0.527898
0.527899
0.5279
0.527901
0.527902
0.527903
0.527903
0.527904
0.527904
0.527905
0.527905
0.527905
0.527906
0.527906
0.527906
0.527906
0.527906
0.527906
0.527906
0.527906
0.527906
0.527906
0.527906
0.527906
0.527906
0.527906
0.527906
0.527906
0.527906
0.527906
0.527906
0.527906
0.527906
0.527906
0.527906
0.527906
0.527906
0.527906
0.527906
0.527906
0.527906
0.527906
0.527906
0.527906
0.527906
0.527906
0.527906
0.527906
0.527905
0.527905
0.527905
0.527904
0.527904
0.527903
0.527903
0.527902
0.527901
0.5279
0.527899
0.527898
0.527897
0.527896
0.527894
0.527893
0.527892
0.52789
0.527889
0.527887
0.527886
0.527884
0.527861
0.527862
0.527863
0.527865
0.527866
0.527867
0.527868
0.527869
0.52787
0.527872
0.527873
0.527873
0.527874
0.527875
0.527876
0.527877
0.527877
0.527878
0.527878
0.527879
0.527879
0.52788
0.52788
0.52788
0.52788
0.52788
0.527881
0.527881
0.527881
0.527881
0.527881
0.527881
0.527881
0.527881
0.527881
0.527881
0.527881
0.527881
0.527881
0.527881
0.527881
0.527881
0.527881
0.527881
0.527881
0.527881
0.527881
0.527881
0.527881
0.527881
0.527881
0.527881
0.527881
0.527881
0.52788
0.52788
0.52788
0.52788
0.52788
0.527879
0.527879
0.527878
0.527878
0.527877
0.527877
0.527876
0.527875
0.527874
0.527873
0.527873
0.527872
0.52787
0.527869
0.527868
0.527867
0.527866
0.527865
0.527863
0.527862
0.527861
0.527838
0.527839
0.52784
0.527841
0.527842
0.527843
0.527844
0.527845
0.527846
0.527846
0.527847
0.527848
0.527849
0.52785
0.52785
0.527851
0.527852
0.527852
0.527853
0.527853
0.527853
0.527854
0.527854
0.527854
0.527855
0.527855
0.527855
0.527855
0.527855
0.527855
0.527855
0.527855
0.527855
0.527855
0.527855
0.527855
0.527855
0.527855
0.527855
0.527855
0.527855
0.527855
0.527855
0.527855
0.527855
0.527855
0.527855
0.527855
0.527855
0.527855
0.527855
0.527855
0.527855
0.527855
0.527855
0.527855
0.527854
0.527854
0.527854
0.527853
0.527853
0.527853
0.527852
0.527852
0.527851
0.52785
0.52785
0.527849
0.527848
0.527847
0.527846
0.527846
0.527845
0.527844
0.527843
0.527842
0.527841
0.52784
0.527839
0.527838
0.527814
0.527815
0.527816
0.527817
0.527817
0.527818
0.527819
0.52782
0.527821
0.527822
0.527822
0.527823
0.527824
0.527824
0.527825
0.527826
0.527826
0.527827
0.527827
0.527827
0.527828
0.527828
0.527828
0.527829
0.527829
0.527829
0.527829
0.527829
0.52783
0.52783
0.52783
0.52783
0.52783
0.52783
0.52783
0.52783
0.52783
0.52783
0.52783
0.52783
0.52783
0.52783
0.52783
0.52783
0.52783
0.52783
0.52783
0.52783
0.52783
0.52783
0.52783
0.52783
0.527829
0.527829
0.527829
0.527829
0.527829
0.527828
0.527828
0.527828
0.527827
0.527827
0.527827
0.527826
0.527826
0.527825
0.527824
0.527824
0.527823
0.527822
0.527822
0.527821
0.52782
0.527819
0.527818
0.527817
0.527817
0.527816
0.527815
0.527814
0.527791
0.527791
0.527792
0.527792
0.527793
0.527794
0.527795
0.527795
0.527796
0.527797
0.527797
0.527798
0.527799
0.527799
0.5278
0.5278
0.527801
0.527801
0.527802
0.527802
0.527802
0.527803
0.527803
0.527803
0.527803
0.527804
0.527804
0.527804
0.527804
0.527804
0.527804
0.527804
0.527804
0.527805
0.527805
0.527805
0.527805
0.527805
0.527805
0.527805
0.527805
0.527805
0.527805
0.527805
0.527805
0.527805
0.527805
0.527804
0.527804
0.527804
0.527804
0.527804
0.527804
0.527804
0.527804
0.527803
0.527803
0.527803
0.527803
0.527802
0.527802
0.527802
0.527801
0.527801
0.5278
0.5278
0.527799
0.527799
0.527798
0.527797
0.527797
0.527796
0.527795
0.527795
0.527794
0.527793
0.527792
0.527792
0.527791
0.527791
0.527767
0.527767
0.527768
0.527768
0.527769
0.52777
0.52777
0.527771
0.527771
0.527772
0.527772
0.527773
0.527774
0.527774
0.527775
0.527775
0.527775
0.527776
0.527776
0.527777
0.527777
0.527777
0.527777
0.527778
0.527778
0.527778
0.527778
0.527778
0.527779
0.527779
0.527779
0.527779
0.527779
0.527779
0.527779
0.527779
0.527779
0.527779
0.527779
0.527779
0.527779
0.527779
0.527779
0.527779
0.527779
0.527779
0.527779
0.527779
0.527779
0.527779
0.527779
0.527779
0.527778
0.527778
0.527778
0.527778
0.527778
0.527777
0.527777
0.527777
0.527777
0.527776
0.527776
0.527775
0.527775
0.527775
0.527774
0.527774
0.527773
0.527772
0.527772
0.527771
0.527771
0.52777
0.52777
0.527769
0.527768
0.527768
0.527767
0.527767
0.527743
0.527743
0.527744
0.527744
0.527745
0.527745
0.527746
0.527746
0.527747
0.527747
0.527748
0.527748
0.527749
0.527749
0.527749
0.52775
0.52775
0.527751
0.527751
0.527751
0.527752
0.527752
0.527752
0.527752
0.527753
0.527753
0.527753
0.527753
0.527753
0.527753
0.527754
0.527754
0.527754
0.527754
0.527754
0.527754
0.527754
0.527754
0.527754
0.527754
0.527754
0.527754
0.527754
0.527754
0.527754
0.527754
0.527754
0.527754
0.527754
0.527754
0.527753
0.527753
0.527753
0.527753
0.527753
0.527753
0.527752
0.527752
0.527752
0.527752
0.527751
0.527751
0.527751
0.52775
0.52775
0.527749
0.527749
0.527749
0.527748
0.527748
0.527747
0.527747
0.527746
0.527746
0.527745
0.527745
0.527744
0.527744
0.527743
0.527743
0.527719
0.527719
0.52772
0.52772
0.52772
0.527721
0.527721
0.527722
0.527722
0.527722
0.527723
0.527723
0.527724
0.527724
0.527724
0.527725
0.527725
0.527725
0.527726
0.527726
0.527726
0.527727
0.527727
0.527727
0.527727
0.527727
0.527728
0.527728
0.527728
0.527728
0.527728
0.527728
0.527728
0.527728
0.527729
0.527729
0.527729
0.527729
0.527729
0.527729
0.527729
0.527729
0.527729
0.527729
0.527729
0.527729
0.527728
0.527728
0.527728
0.527728
0.527728
0.527728
0.527728
0.527728
0.527727
0.527727
0.527727
0.527727
0.527727
0.527726
0.527726
0.527726
0.527725
0.527725
0.527725
0.527724
0.527724
0.527724
0.527723
0.527723
0.527722
0.527722
0.527722
0.527721
0.527721
0.52772
0.52772
0.52772
0.527719
0.527719
0.527695
0.527695
0.527695
0.527696
0.527696
0.527696
0.527697
0.527697
0.527697
0.527698
0.527698
0.527698
0.527699
0.527699
0.527699
0.5277
0.5277
0.5277
0.527701
0.527701
0.527701
0.527701
0.527702
0.527702
0.527702
0.527702
0.527702
0.527703
0.527703
0.527703
0.527703
0.527703
0.527703
0.527703
0.527703
0.527703
0.527703
0.527703
0.527703
0.527703
0.527703
0.527703
0.527703
0.527703
0.527703
0.527703
0.527703
0.527703
0.527703
0.527703
0.527703
0.527703
0.527703
0.527702
0.527702
0.527702
0.527702
0.527702
0.527701
0.527701
0.527701
0.527701
0.5277
0.5277
0.5277
0.527699
0.527699
0.527699
0.527698
0.527698
0.527698
0.527697
0.527697
0.527697
0.527696
0.527696
0.527696
0.527695
0.527695
0.527695
0.527671
0.527671
0.527671
0.527671
0.527672
0.527672
0.527672
0.527672
0.527673
0.527673
0.527673
0.527674
0.527674
0.527674
0.527675
0.527675
0.527675
0.527675
0.527676
0.527676
0.527676
0.527676
0.527677
0.527677
0.527677
0.527677
0.527677
0.527677
0.527677
0.527678
0.527678
0.527678
0.527678
0.527678
0.527678
0.527678
0.527678
0.527678
0.527678
0.527678
0.527678
0.527678
0.527678
0.527678
0.527678
0.527678
0.527678
0.527678
0.527678
0.527678
0.527678
0.527677
0.527677
0.527677
0.527677
0.527677
0.527677
0.527677
0.527676
0.527676
0.527676
0.527676
0.527675
0.527675
0.527675
0.527675
0.527674
0.527674
0.527674
0.527673
0.527673
0.527673
0.527672
0.527672
0.527672
0.527672
0.527671
0.527671
0.527671
0.527671
0.527646
0.527647
0.527647
0.527647
0.527647
0.527647
0.527648
0.527648
0.527648
0.527648
0.527649
0.527649
0.527649
0.527649
0.52765
0.52765
0.52765
0.52765
0.527651
0.527651
0.527651
0.527651
0.527651
0.527652
0.527652
0.527652
0.527652
0.527652
0.527652
0.527652
0.527653
0.527653
0.527653
0.527653
0.527653
0.527653
0.527653
0.527653
0.527653
0.527653
0.527653
0.527653
0.527653
0.527653
0.527653
0.527653
0.527653
0.527653
0.527653
0.527653
0.527652
0.527652
0.527652
0.527652
0.527652
0.527652
0.527652
0.527651
0.527651
0.527651
0.527651
0.527651
0.52765
0.52765
0.52765
0.52765
0.527649
0.527649
0.527649
0.527649
0.527648
0.527648
0.527648
0.527648
0.527647
0.527647
0.527647
0.527647
0.527647
0.527646
0.527622
0.527622
0.527622
0.527623
0.527623
0.527623
0.527623
0.527623
0.527623
0.527624
0.527624
0.527624
0.527624
0.527625
0.527625
0.527625
0.527625
0.527625
0.527626
0.527626
0.527626
0.527626
0.527626
0.527626
0.527627
0.527627
0.527627
0.527627
0.527627
0.527627
0.527627
0.527627
0.527628
0.527628
0.527628
0.527628
0.527628
0.527628
0.527628
0.527628
0.527628
0.527628
0.527628
0.527628
0.527628
0.527628
0.527628
0.527628
0.527627
0.527627
0.527627
0.527627
0.527627
0.527627
0.527627
0.527627
0.527626
0.527626
0.527626
0.527626
0.527626
0.527626
0.527625
0.527625
0.527625
0.527625
0.527625
0.527624
0.527624
0.527624
0.527624
0.527623
0.527623
0.527623
0.527623
0.527623
0.527623
0.527622
0.527622
0.527622
0.527598
0.527598
0.527598
0.527598
0.527598
0.527598
0.527598
0.527599
0.527599
0.527599
0.527599
0.527599