/*--------------------------------*- C++ -*----------------------------------*\
  =========                 |
  \\      /  F ield         | OpenFOAM: The Open Source CFD Toolbox
   \\    /   O peration     | Website:  https://openfoam.org
    \\  /    A nd           | Version:  11
     \\/     M anipulation  |
\*---------------------------------------------------------------------------*/
FoamFile
{
    format      ascii;
    class       volScalarField;
    location    "334";
    object      p;
}
// * * * * * * * * * * * * * * * * * * * * * * * * * * * * * * * * * * * * * //

dimensions      [0 2 -2 0 0 0 0];

internalField   nonuniform List<scalar> 
332800
(
0.108451
0.104277
0.101348
0.0996614
0.0985464
0.0977251
0.0971073
0.0966395
0.0962798
0.0959981
0.0957738
0.0955921
0.0954426
0.0953179
0.0952123
0.0951219
0.0950437
0.0949754
0.0949153
0.094862
0.0948147
0.0947723
0.0947344
0.0947002
0.0946696
0.0946419
0.0946171
0.0945948
0.0945748
0.0945569
0.0945411
0.0945272
0.094515
0.0945045
0.0944957
0.0944884
0.0944826
0.0944783
0.0944754
0.094474
0.094474
0.0944754
0.0944783
0.0944826
0.0944884
0.0944957
0.0945045
0.094515
0.0945272
0.0945411
0.0945569
0.0945748
0.0945948
0.0946171
0.0946419
0.0946696
0.0947002
0.0947344
0.0947723
0.0948147
0.094862
0.0949153
0.0949754
0.0950437
0.0951219
0.0952123
0.0953179
0.0954426
0.0955921
0.0957738
0.0959981
0.0962798
0.0966395
0.0971073
0.0977251
0.0985464
0.0996614
0.101348
0.104277
0.108451
0.09913
0.098879
0.0984556
0.0979812
0.0975279
0.0971193
0.0967626
0.0964569
0.0961968
0.0959758
0.0957878
0.0956272
0.0954895
0.0953706
0.0952674
0.0951773
0.0950982
0.0950284
0.0949665
0.0949114
0.0948622
0.0948181
0.0947785
0.0947429
0.0947108
0.094682
0.094656
0.0946328
0.0946119
0.0945933
0.0945768
0.0945623
0.0945496
0.0945387
0.0945295
0.0945219
0.0945159
0.0945114
0.0945084
0.094507
0.094507
0.0945084
0.0945114
0.0945159
0.0945219
0.0945295
0.0945387
0.0945496
0.0945623
0.0945768
0.0945933
0.0946119
0.0946328
0.094656
0.094682
0.0947108
0.0947429
0.0947785
0.0948181
0.0948622
0.0949114
0.0949665
0.0950284
0.0950982
0.0951773
0.0952674
0.0953706
0.0954895
0.0956272
0.0957878
0.0959758
0.0961968
0.0964569
0.0967626
0.0971193
0.0975279
0.0979812
0.0984556
0.098879
0.09913
0.0967961
0.0969958
0.0970897
0.097004
0.09683
0.0966282
0.0964234
0.0962269
0.0960444
0.0958783
0.095729
0.0955957
0.095477
0.0953714
0.0952775
0.0951939
0.0951192
0.0950524
0.0949925
0.0949388
0.0948904
0.0948468
0.0948074
0.0947719
0.0947398
0.0947109
0.0946848
0.0946614
0.0946403
0.0946215
0.0946049
0.0945902
0.0945773
0.0945663
0.0945569
0.0945493
0.0945432
0.0945386
0.0945356
0.0945341
0.0945341
0.0945356
0.0945386
0.0945432
0.0945493
0.0945569
0.0945663
0.0945773
0.0945902
0.0946049
0.0946215
0.0946403
0.0946614
0.0946848
0.0947109
0.0947398
0.0947719
0.0948074
0.0948468
0.0948904
0.0949388
0.0949925
0.0950524
0.0951192
0.0951939
0.0952775
0.0953714
0.095477
0.0955957
0.095729
0.0958783
0.0960444
0.0962269
0.0964234
0.0966282
0.09683
0.097004
0.0970897
0.0969958
0.0967961
0.0958882
0.0960826
0.0962262
0.0962571
0.0962158
0.0961364
0.0960364
0.0959265
0.0958139
0.0957032
0.0955974
0.0954979
0.0954054
0.0953202
0.095242
0.0951705
0.0951052
0.0950457
0.0949916
0.0949422
0.0948973
0.0948565
0.0948193
0.0947855
0.0947548
0.0947269
0.0947017
0.0946789
0.0946585
0.0946401
0.0946238
0.0946094
0.0945968
0.0945859
0.0945767
0.0945691
0.0945631
0.0945586
0.0945557
0.0945542
0.0945542
0.0945557
0.0945586
0.0945631
0.0945691
0.0945767
0.0945859
0.0945968
0.0946094
0.0946238
0.0946401
0.0946585
0.0946789
0.0947017
0.0947269
0.0947548
0.0947855
0.0948193
0.0948565
0.0948973
0.0949422
0.0949916
0.0950457
0.0951052
0.0951705
0.095242
0.0953202
0.0954054
0.0954979
0.0955974
0.0957032
0.0958139
0.0959265
0.0960364
0.0961364
0.0962158
0.0962571
0.0962262
0.0960826
0.0958882
0.0954119
0.0955629
0.0956914
0.0957545
0.0957685
0.0957501
0.0957094
0.0956539
0.0955893
0.09552
0.095449
0.0953786
0.0953102
0.0952448
0.0951828
0.0951245
0.0950701
0.0950195
0.0949726
0.0949292
0.0948891
0.0948523
0.0948184
0.0947874
0.0947589
0.094733
0.0947093
0.0946879
0.0946685
0.0946511
0.0946355
0.0946217
0.0946097
0.0945992
0.0945904
0.0945831
0.0945773
0.094573
0.0945701
0.0945687
0.0945687
0.0945701
0.094573
0.0945773
0.0945831
0.0945904
0.0945992
0.0946097
0.0946217
0.0946355
0.0946511
0.0946685
0.0946879
0.0947093
0.094733
0.0947589
0.0947874
0.0948184
0.0948523
0.0948891
0.0949292
0.0949726
0.0950195
0.0950701
0.0951245
0.0951828
0.0952448
0.0953102
0.0953786
0.095449
0.09552
0.0955893
0.0956539
0.0957094
0.0957501
0.0957685
0.0957545
0.0956914
0.0955629
0.0954119
0.0951353
0.0952465
0.0953495
0.0954138
0.0954462
0.095455
0.0954454
0.0954217
0.0953879
0.0953471
0.0953019
0.0952543
0.0952058
0.0951575
0.0951103
0.0950646
0.0950209
0.0949794
0.0949401
0.0949033
0.0948688
0.0948366
0.0948067
0.094779
0.0947535
0.0947299
0.0947084
0.0946887
0.0946708
0.0946547
0.0946402
0.0946274
0.0946161
0.0946063
0.094598
0.0945911
0.0945857
0.0945816
0.0945789
0.0945775
0.0945775
0.0945789
0.0945816
0.0945857
0.0945911
0.094598
0.0946063
0.0946161
0.0946274
0.0946402
0.0946547
0.0946708
0.0946887
0.0947084
0.0947299
0.0947535
0.094779
0.0948067
0.0948366
0.0948688
0.0949033
0.0949401
0.0949794
0.0950209
0.0950646
0.0951103
0.0951575
0.0952058
0.0952543
0.0953019
0.0953471
0.0953879
0.0954217
0.0954454
0.095455
0.0954462
0.0954138
0.0953495
0.0952465
0.0951353
0.0949566
0.0950389
0.095119
0.0951756
0.0952115
0.095231
0.0952365
0.0952306
0.0952155
0.0951933
0.0951661
0.0951352
0.0951021
0.0950676
0.0950327
0.094998
0.0949639
0.0949308
0.0948989
0.0948685
0.0948396
0.0948122
0.0947865
0.0947625
0.0947401
0.0947193
0.0947001
0.0946825
0.0946664
0.0946518
0.0946386
0.0946269
0.0946166
0.0946076
0.0945999
0.0945936
0.0945885
0.0945848
0.0945823
0.094581
0.094581
0.0945823
0.0945848
0.0945885
0.0945936
0.0945999
0.0946076
0.0946166
0.0946269
0.0946386
0.0946518
0.0946664
0.0946825
0.0947001
0.0947193
0.0947401
0.0947625
0.0947865
0.0948122
0.0948396
0.0948685
0.0948989
0.0949308
0.0949639
0.094998
0.0950327
0.0950676
0.0951021
0.0951352
0.0951661
0.0951933
0.0952155
0.0952306
0.0952365
0.095231
0.0952115
0.0951756
0.095119
0.0950389
0.0949566
0.0948311
0.0948932
0.0949557
0.0950031
0.0950369
0.0950594
0.0950717
0.0950751
0.0950709
0.0950605
0.0950453
0.0950262
0.0950043
0.0949805
0.0949554
0.0949297
0.0949037
0.094878
0.0948527
0.0948281
0.0948044
0.0947817
0.0947601
0.0947397
0.0947205
0.0947025
0.0946858
0.0946703
0.0946561
0.0946432
0.0946314
0.0946209
0.0946117
0.0946036
0.0945967
0.0945909
0.0945864
0.0945829
0.0945807
0.0945795
0.0945795
0.0945807
0.0945829
0.0945864
0.0945909
0.0945967
0.0946036
0.0946117
0.0946209
0.0946314
0.0946432
0.0946561
0.0946703
0.0946858
0.0947025
0.0947205
0.0947397
0.0947601
0.0947817
0.0948044
0.0948281
0.0948527
0.094878
0.0949037
0.0949297
0.0949554
0.0949805
0.0950043
0.0950262
0.0950453
0.0950605
0.0950709
0.0950751
0.0950717
0.0950594
0.0950369
0.0950031
0.0949557
0.0948932
0.0948311
0.0947378
0.0947856
0.0948348
0.0948739
0.0949038
0.0949258
0.0949405
0.0949484
0.0949503
0.0949471
0.0949396
0.0949286
0.0949148
0.0948988
0.0948813
0.0948626
0.0948433
0.0948237
0.094804
0.0947846
0.0947655
0.0947471
0.0947293
0.0947122
0.0946961
0.0946808
0.0946666
0.0946533
0.094641
0.0946297
0.0946194
0.0946102
0.094602
0.0945949
0.0945887
0.0945836
0.0945796
0.0945765
0.0945745
0.0945735
0.0945735
0.0945745
0.0945765
0.0945796
0.0945836
0.0945887
0.0945949
0.094602
0.0946102
0.0946194
0.0946297
0.094641
0.0946533
0.0946666
0.0946808
0.0946961
0.0947122
0.0947293
0.0947471
0.0947655
0.0947846
0.094804
0.0948237
0.0948433
0.0948626
0.0948813
0.0948988
0.0949148
0.0949286
0.0949396
0.0949471
0.0949503
0.0949484
0.0949405
0.0949258
0.0949038
0.0948739
0.0948348
0.0947856
0.0947378
0.0946652
0.0947027
0.0947418
0.0947739
0.0947996
0.0948197
0.0948346
0.0948443
0.0948495
0.0948505
0.0948479
0.0948423
0.0948341
0.0948238
0.0948119
0.0947987
0.0947846
0.0947699
0.0947549
0.0947398
0.0947248
0.09471
0.0946956
0.0946816
0.0946683
0.0946556
0.0946435
0.0946323
0.0946218
0.0946122
0.0946033
0.0945954
0.0945883
0.0945821
0.0945767
0.0945723
0.0945687
0.094566
0.0945642
0.0945633
0.0945633
0.0945642
0.094566
0.0945687
0.0945723
0.0945767
0.0945821
0.0945883
0.0945954
0.0946033
0.0946122
0.0946218
0.0946323
0.0946435
0.0946556
0.0946683
0.0946816
0.0946956
0.09471
0.0947248
0.0947398
0.0947549
0.0947699
0.0947846
0.0947987
0.0948119
0.0948238
0.0948341
0.0948423
0.0948479
0.0948505
0.0948495
0.0948443
0.0948346
0.0948197
0.0947996
0.0947739
0.0947418
0.0947027
0.0946652
0.0946066
0.0946362
0.0946676
0.094694
0.0947158
0.0947337
0.0947476
0.0947578
0.0947644
0.0947678
0.0947682
0.094766
0.0947617
0.0947554
0.0947476
0.0947385
0.0947285
0.0947177
0.0947065
0.0946949
0.0946833
0.0946716
0.0946601
0.0946489
0.094638
0.0946276
0.0946177
0.0946083
0.0945995
0.0945914
0.0945839
0.0945771
0.0945711
0.0945657
0.0945611
0.0945573
0.0945542
0.0945519
0.0945504
0.0945496
0.0945496
0.0945504
0.0945519
0.0945542
0.0945573
0.0945611
0.0945657
0.0945711
0.0945771
0.0945839
0.0945914
0.0945995
0.0946083
0.0946177
0.0946276
0.094638
0.0946489
0.0946601
0.0946716
0.0946833
0.0946949
0.0947065
0.0947177
0.0947285
0.0947385
0.0947476
0.0947554
0.0947617
0.094766
0.0947682
0.0947678
0.0947644
0.0947578
0.0947476
0.0947337
0.0947158
0.094694
0.0946676
0.0946362
0.0946066
0.0945575
0.0945813
0.0946066
0.0946283
0.0946467
0.0946622
0.0946749
0.0946847
0.0946918
0.0946963
0.0946985
0.0946986
0.0946968
0.0946933
0.0946885
0.0946824
0.0946755
0.0946678
0.0946595
0.0946508
0.0946419
0.0946329
0.0946239
0.0946149
0.0946062
0.0945978
0.0945897
0.094582
0.0945747
0.094568
0.0945618
0.0945561
0.094551
0.0945465
0.0945426
0.0945393
0.0945367
0.0945348
0.0945334
0.0945328
0.0945328
0.0945334
0.0945348
0.0945367
0.0945393
0.0945426
0.0945465
0.094551
0.0945561
0.0945618
0.094568
0.0945747
0.094582
0.0945897
0.0945978
0.0946062
0.0946149
0.0946239
0.0946329
0.0946419
0.0946508
0.0946595
0.0946678
0.0946755
0.0946824
0.0946885
0.0946933
0.0946968
0.0946986
0.0946985
0.0946963
0.0946918
0.0946847
0.0946749
0.0946622
0.0946467
0.0946283
0.0946066
0.0945813
0.0945575
0.0945153
0.0945344
0.094555
0.0945729
0.0945883
0.0946017
0.0946129
0.094622
0.094629
0.094634
0.0946371
0.0946385
0.0946384
0.0946368
0.0946341
0.0946303
0.0946256
0.0946202
0.0946143
0.0946079
0.0946012
0.0945943
0.0945873
0.0945804
0.0945735
0.0945667
0.0945602
0.094554
0.0945481
0.0945426
0.0945374
0.0945327
0.0945285
0.0945248
0.0945215
0.0945188
0.0945166
0.094515
0.0945139
0.0945133
0.0945133
0.0945139
0.094515
0.0945166
0.0945188
0.0945215
0.0945248
0.0945285
0.0945327
0.0945374
0.0945426
0.0945481
0.094554
0.0945602
0.0945667
0.0945735
0.0945804
0.0945873
0.0945943
0.0946012
0.0946079
0.0946143
0.0946202
0.0946256
0.0946303
0.0946341
0.0946368
0.0946384
0.0946385
0.0946371
0.094634
0.094629
0.094622
0.0946129
0.0946017
0.0945883
0.0945729
0.094555
0.0945344
0.0945153
0.0944778
0.0944933
0.0945101
0.0945248
0.0945378
0.0945492
0.094559
0.0945672
0.0945738
0.0945788
0.0945824
0.0945846
0.0945855
0.0945852
0.0945839
0.0945817
0.0945788
0.0945751
0.094571
0.0945664
0.0945614
0.0945563
0.094551
0.0945456
0.0945402
0.0945349
0.0945298
0.0945248
0.0945201
0.0945156
0.0945114
0.0945076
0.0945042
0.0945011
0.0944984
0.0944962
0.0944944
0.094493
0.0944921
0.0944916
0.0944916
0.0944921
0.094493
0.0944944
0.0944962
0.0944984
0.0945011
0.0945042
0.0945076
0.0945114
0.0945156
0.0945201
0.0945248
0.0945298
0.0945349
0.0945402
0.0945456
0.094551
0.0945563
0.0945614
0.0945664
0.094571
0.0945751
0.0945788
0.0945817
0.0945839
0.0945852
0.0945855
0.0945846
0.0945824
0.0945788
0.0945738
0.0945672
0.094559
0.0945492
0.0945378
0.0945248
0.0945101
0.0944933
0.0944778
0.0944437
0.0944563
0.0944701
0.0944823
0.0944931
0.0945028
0.0945113
0.0945186
0.0945246
0.0945294
0.0945331
0.0945357
0.0945372
0.0945378
0.0945375
0.0945364
0.0945347
0.0945323
0.0945295
0.0945263
0.0945227
0.094519
0.094515
0.0945109
0.0945068
0.0945027
0.0944987
0.0944948
0.094491
0.0944875
0.0944841
0.0944811
0.0944783
0.0944758
0.0944736
0.0944718
0.0944703
0.0944692
0.0944685
0.0944681
0.0944681
0.0944685
0.0944692
0.0944703
0.0944718
0.0944736
0.0944758
0.0944783
0.0944811
0.0944841
0.0944875
0.094491
0.0944948
0.0944987
0.0945027
0.0945068
0.0945109
0.094515
0.094519
0.0945227
0.0945263
0.0945295
0.0945323
0.0945347
0.0945364
0.0945375
0.0945378
0.0945372
0.0945357
0.0945331
0.0945294
0.0945246
0.0945186
0.0945113
0.0945028
0.0944931
0.0944823
0.0944701
0.0944563
0.0944437
0.0944121
0.0944224
0.0944336
0.0944437
0.0944528
0.094461
0.0944683
0.0944747
0.0944801
0.0944846
0.0944882
0.0944908
0.0944927
0.0944938
0.0944942
0.0944939
0.094493
0.0944916
0.0944898
0.0944877
0.0944852
0.0944825
0.0944796
0.0944766
0.0944735
0.0944703
0.0944673
0.0944642
0.0944613
0.0944585
0.0944559
0.0944535
0.0944512
0.0944493
0.0944475
0.0944461
0.0944449
0.094444
0.0944434
0.0944431
0.0944431
0.0944434
0.094444
0.0944449
0.0944461
0.0944475
0.0944493
0.0944512
0.0944535
0.0944559
0.0944585
0.0944613
0.0944642
0.0944673
0.0944703
0.0944735
0.0944766
0.0944796
0.0944825
0.0944852
0.0944877
0.0944898
0.0944916
0.094493
0.0944939
0.0944942
0.0944938
0.0944927
0.0944908
0.0944882
0.0944846
0.0944801
0.0944747
0.0944683
0.094461
0.0944528
0.0944437
0.0944336
0.0944224
0.0944121
0.0943822
0.0943906
0.0943998
0.0944081
0.0944157
0.0944226
0.0944289
0.0944344
0.0944392
0.0944433
0.0944467
0.0944493
0.0944513
0.0944527
0.0944535
0.0944537
0.0944535
0.0944528
0.0944518
0.0944504
0.0944487
0.0944468
0.0944448
0.0944426
0.0944403
0.094438
0.0944357
0.0944334
0.0944311
0.094429
0.0944269
0.094425
0.0944233
0.0944217
0.0944204
0.0944192
0.0944183
0.0944176
0.0944171
0.0944168
0.0944168
0.0944171
0.0944176
0.0944183
0.0944192
0.0944204
0.0944217
0.0944233
0.094425
0.0944269
0.094429
0.0944311
0.0944334
0.0944357
0.094438
0.0944403
0.0944426
0.0944448
0.0944468
0.0944487
0.0944504
0.0944518
0.0944528
0.0944535
0.0944537
0.0944535
0.0944527
0.0944513
0.0944493
0.0944467
0.0944433
0.0944392
0.0944344
0.0944289
0.0944226
0.0944157
0.0944081
0.0943998
0.0943906
0.0943822
0.0943535
0.0943603
0.0943678
0.0943747
0.094381
0.0943869
0.0943922
0.094397
0.0944012
0.0944049
0.094408
0.0944105
0.0944125
0.094414
0.0944151
0.0944156
0.0944158
0.0944156
0.0944151
0.0944143
0.0944133
0.0944121
0.0944106
0.0944091
0.0944075
0.0944058
0.0944041
0.0944023
0.0944006
0.094399
0.0943975
0.094396
0.0943947
0.0943935
0.0943924
0.0943915
0.0943908
0.0943902
0.0943898
0.0943896
0.0943896
0.0943898
0.0943902
0.0943908
0.0943915
0.0943924
0.0943935
0.0943947
0.094396
0.0943975
0.094399
0.0944006
0.0944023
0.0944041
0.0944058
0.0944075
0.0944091
0.0944106
0.0944121
0.0944133
0.0944143
0.0944151
0.0944156
0.0944158
0.0944156
0.0944151
0.094414
0.0944125
0.0944105
0.094408
0.0944049
0.0944012
0.094397
0.0943922
0.0943869
0.094381
0.0943747
0.0943678
0.0943603
0.0943535
0.0943255
0.0943311
0.0943373
0.0943429
0.0943482
0.0943531
0.0943576
0.0943617
0.0943654
0.0943686
0.0943714
0.0943738
0.0943758
0.0943773
0.0943785
0.0943793
0.0943797
0.0943799
0.0943797
0.0943794
0.0943788
0.094378
0.0943771
0.0943761
0.0943749
0.0943737
0.0943725
0.0943713
0.09437
0.0943688
0.0943677
0.0943666
0.0943655
0.0943646
0.0943638
0.0943631
0.0943626
0.0943621
0.0943619
0.0943617
0.0943617
0.0943619
0.0943621
0.0943626
0.0943631
0.0943638
0.0943646
0.0943655
0.0943666
0.0943677
0.0943688
0.09437
0.0943713
0.0943725
0.0943737
0.0943749
0.0943761
0.0943771
0.094378
0.0943788
0.0943794
0.0943797
0.0943799
0.0943797
0.0943793
0.0943785
0.0943773
0.0943758
0.0943738
0.0943714
0.0943686
0.0943654
0.0943617
0.0943576
0.0943531
0.0943482
0.0943429
0.0943373
0.0943311
0.0943255
0.0942981
0.0943026
0.0943077
0.0943123
0.0943167
0.0943208
0.0943246
0.0943281
0.0943313
0.0943342
0.0943367
0.0943388
0.0943407
0.0943422
0.0943434
0.0943443
0.0943449
0.0943453
0.0943454
0.0943454
0.0943451
0.0943447
0.0943442
0.0943435
0.0943428
0.094342
0.0943411
0.0943402
0.0943393
0.0943385
0.0943376
0.0943368
0.0943361
0.0943354
0.0943348
0.0943343
0.0943339
0.0943335
0.0943333
0.0943332
0.0943332
0.0943333
0.0943335
0.0943339
0.0943343
0.0943348
0.0943354
0.0943361
0.0943368
0.0943376
0.0943385
0.0943393
0.0943402
0.0943411
0.094342
0.0943428
0.0943435
0.0943442
0.0943447
0.0943451
0.0943454
0.0943454
0.0943453
0.0943449
0.0943443
0.0943434
0.0943422
0.0943407
0.0943388
0.0943367
0.0943342
0.0943313
0.0943281
0.0943246
0.0943208
0.0943167
0.0943123
0.0943077
0.0943026
0.0942981
0.0942709
0.0942746
0.0942787
0.0942826
0.0942862
0.0942896
0.0942928
0.0942958
0.0942986
0.094301
0.0943033
0.0943052
0.0943069
0.0943083
0.0943095
0.0943105
0.0943112
0.0943117
0.094312
0.0943122
0.0943122
0.094312
0.0943118
0.0943114
0.0943109
0.0943104
0.0943099
0.0943093
0.0943087
0.0943081
0.0943075
0.0943069
0.0943064
0.0943059
0.0943054
0.0943051
0.0943048
0.0943045
0.0943044
0.0943043
0.0943043
0.0943044
0.0943045
0.0943048
0.0943051
0.0943054
0.0943059
0.0943064
0.0943069
0.0943075
0.0943081
0.0943087
0.0943093
0.0943099
0.0943104
0.0943109
0.0943114
0.0943118
0.094312
0.0943122
0.0943122
0.094312
0.0943117
0.0943112
0.0943105
0.0943095
0.0943083
0.0943069
0.0943052
0.0943033
0.094301
0.0942986
0.0942958
0.0942928
0.0942896
0.0942862
0.0942826
0.0942787
0.0942746
0.0942709
0.0942439
0.0942469
0.0942503
0.0942534
0.0942564
0.0942593
0.094262
0.0942645
0.0942668
0.094269
0.0942709
0.0942727
0.0942742
0.0942755
0.0942767
0.0942776
0.0942784
0.094279
0.0942794
0.0942797
0.0942798
0.0942799
0.0942798
0.0942797
0.0942794
0.0942792
0.0942788
0.0942785
0.0942781
0.0942777
0.0942773
0.0942769
0.0942765
0.0942762
0.0942759
0.0942756
0.0942754
0.0942752
0.0942751
0.094275
0.094275
0.0942751
0.0942752
0.0942754
0.0942756
0.0942759
0.0942762
0.0942765
0.0942769
0.0942773
0.0942777
0.0942781
0.0942785
0.0942788
0.0942792
0.0942794
0.0942797
0.0942798
0.0942799
0.0942798
0.0942797
0.0942794
0.094279
0.0942784
0.0942776
0.0942767
0.0942755
0.0942742
0.0942727
0.0942709
0.094269
0.0942668
0.0942645
0.094262
0.0942593
0.0942564
0.0942534
0.0942503
0.0942469
0.0942439
0.094217
0.0942194
0.0942221
0.0942247
0.0942271
0.0942295
0.0942318
0.0942339
0.0942359
0.0942377
0.0942394
0.094241
0.0942423
0.0942436
0.0942446
0.0942455
0.0942463
0.0942469
0.0942474
0.0942478
0.0942481
0.0942482
0.0942483
0.0942483
0.0942482
0.0942481
0.094248
0.0942478
0.0942475
0.0942473
0.094247
0.0942468
0.0942466
0.0942463
0.0942461
0.094246
0.0942458
0.0942457
0.0942456
0.0942456
0.0942456
0.0942456
0.0942457
0.0942458
0.094246
0.0942461
0.0942463
0.0942466
0.0942468
0.094247
0.0942473
0.0942475
0.0942478
0.094248
0.0942481
0.0942482
0.0942483
0.0942483
0.0942482
0.0942481
0.0942478
0.0942474
0.0942469
0.0942463
0.0942455
0.0942446
0.0942436
0.0942423
0.094241
0.0942394
0.0942377
0.0942359
0.0942339
0.0942318
0.0942295
0.0942271
0.0942247
0.0942221
0.0942194
0.094217
0.09419
0.0941919
0.0941941
0.0941962
0.0941982
0.0942002
0.094202
0.0942038
0.0942055
0.0942071
0.0942086
0.0942099
0.0942112
0.0942123
0.0942132
0.0942141
0.0942148
0.0942155
0.094216
0.0942164
0.0942167
0.094217
0.0942172
0.0942173
0.0942173
0.0942173
0.0942173
0.0942172
0.0942171
0.094217
0.0942168
0.0942167
0.0942166
0.0942164
0.0942163
0.0942162
0.0942161
0.094216
0.094216
0.094216
0.094216
0.094216
0.094216
0.0942161
0.0942162
0.0942163
0.0942164
0.0942166
0.0942167
0.0942168
0.094217
0.0942171
0.0942172
0.0942173
0.0942173
0.0942173
0.0942173
0.0942172
0.094217
0.0942167
0.0942164
0.094216
0.0942155
0.0942148
0.0942141
0.0942132
0.0942123
0.0942112
0.0942099
0.0942086
0.0942071
0.0942055
0.0942038
0.094202
0.0942002
0.0941982
0.0941962
0.0941941
0.0941919
0.09419
0.0941628
0.0941644
0.0941662
0.0941679
0.0941695
0.0941711
0.0941727
0.0941742
0.0941756
0.094177
0.0941782
0.0941794
0.0941805
0.0941815
0.0941824
0.0941832
0.0941839
0.0941845
0.094185
0.0941854
0.0941858
0.0941861
0.0941863
0.0941865
0.0941867
0.0941867
0.0941868
0.0941868
0.0941868
0.0941867
0.0941867
0.0941866
0.0941866
0.0941865
0.0941864
0.0941864
0.0941863
0.0941863
0.0941863
0.0941863
0.0941863
0.0941863
0.0941863
0.0941863
0.0941864
0.0941864
0.0941865
0.0941866
0.0941866
0.0941867
0.0941867
0.0941868
0.0941868
0.0941868
0.0941867
0.0941867
0.0941865
0.0941863
0.0941861
0.0941858
0.0941854
0.094185
0.0941845
0.0941839
0.0941832
0.0941824
0.0941815
0.0941805
0.0941794
0.0941782
0.094177
0.0941756
0.0941742
0.0941727
0.0941711
0.0941695
0.0941679
0.0941662
0.0941644
0.0941628
0.0941356
0.0941368
0.0941382
0.0941396
0.094141
0.0941423
0.0941436
0.0941448
0.094146
0.0941472
0.0941483
0.0941493
0.0941502
0.0941511
0.0941519
0.0941526
0.0941533
0.0941539
0.0941544
0.0941548
0.0941552
0.0941555
0.0941558
0.094156
0.0941562
0.0941563
0.0941564
0.0941565
0.0941566
0.0941566
0.0941566
0.0941566
0.0941566
0.0941566
0.0941566
0.0941565
0.0941565
0.0941565
0.0941565
0.0941565
0.0941565
0.0941565
0.0941565
0.0941565
0.0941565
0.0941566
0.0941566
0.0941566
0.0941566
0.0941566
0.0941566
0.0941566
0.0941565
0.0941564
0.0941563
0.0941562
0.094156
0.0941558
0.0941555
0.0941552
0.0941548
0.0941544
0.0941539
0.0941533
0.0941526
0.0941519
0.0941511
0.0941502
0.0941493
0.0941483
0.0941472
0.094146
0.0941448
0.0941436
0.0941423
0.094141
0.0941396
0.0941382
0.0941368
0.0941356
0.0941082
0.0941092
0.0941103
0.0941114
0.0941125
0.0941136
0.0941147
0.0941157
0.0941167
0.0941177
0.0941186
0.0941195
0.0941203
0.0941211
0.0941218
0.0941224
0.094123
0.0941236
0.094124
0.0941245
0.0941248
0.0941252
0.0941255
0.0941257
0.0941259
0.0941261
0.0941263
0.0941264
0.0941265
0.0941265
0.0941266
0.0941266
0.0941267
0.0941267
0.0941267
0.0941267
0.0941267
0.0941267
0.0941267
0.0941267
0.0941267
0.0941267
0.0941267
0.0941267
0.0941267
0.0941267
0.0941267
0.0941267
0.0941266
0.0941266
0.0941265
0.0941265
0.0941264
0.0941263
0.0941261
0.0941259
0.0941257
0.0941255
0.0941252
0.0941248
0.0941245
0.094124
0.0941236
0.094123
0.0941224
0.0941218
0.0941211
0.0941203
0.0941195
0.0941186
0.0941177
0.0941167
0.0941157
0.0941147
0.0941136
0.0941125
0.0941114
0.0941103
0.0941092
0.0941082
0.0940806
0.0940814
0.0940823
0.0940832
0.0940841
0.094085
0.0940858
0.0940867
0.0940875
0.0940884
0.0940891
0.0940899
0.0940906
0.0940913
0.0940919
0.0940925
0.094093
0.0940935
0.094094
0.0940944
0.0940947
0.0940951
0.0940953
0.0940956
0.0940958
0.094096
0.0940962
0.0940963
0.0940965
0.0940966
0.0940966
0.0940967
0.0940968
0.0940968
0.0940969
0.0940969
0.0940969
0.0940969
0.0940969
0.0940969
0.0940969
0.0940969
0.0940969
0.0940969
0.0940969
0.0940969
0.0940968
0.0940968
0.0940967
0.0940966
0.0940966
0.0940965
0.0940963
0.0940962
0.094096
0.0940958
0.0940956
0.0940953
0.0940951
0.0940947
0.0940944
0.094094
0.0940935
0.094093
0.0940925
0.0940919
0.0940913
0.0940906
0.0940899
0.0940891
0.0940884
0.0940875
0.0940867
0.0940858
0.094085
0.0940841
0.0940832
0.0940823
0.0940814
0.0940806
0.0940529
0.0940535
0.0940542
0.0940549
0.0940556
0.0940564
0.0940571
0.0940578
0.0940585
0.0940592
0.0940598
0.0940605
0.0940611
0.0940617
0.0940622
0.0940627
0.0940632
0.0940636
0.0940641
0.0940644
0.0940648
0.0940651
0.0940654
0.0940656
0.0940659
0.0940661
0.0940663
0.0940664
0.0940666
0.0940667
0.0940668
0.0940669
0.0940669
0.094067
0.094067
0.0940671
0.0940671
0.0940671
0.0940672
0.0940672
0.0940672
0.0940672
0.0940671
0.0940671
0.0940671
0.094067
0.094067
0.0940669
0.0940669
0.0940668
0.0940667
0.0940666
0.0940664
0.0940663
0.0940661
0.0940659
0.0940656
0.0940654
0.0940651
0.0940648
0.0940644
0.0940641
0.0940636
0.0940632
0.0940627
0.0940622
0.0940617
0.0940611
0.0940605
0.0940598
0.0940592
0.0940585
0.0940578
0.0940571
0.0940564
0.0940556
0.0940549
0.0940542
0.0940535
0.0940529
0.0940251
0.0940255
0.0940261
0.0940266
0.0940272
0.0940278
0.0940283
0.0940289
0.0940295
0.0940301
0.0940306
0.0940312
0.0940317
0.0940322
0.0940327
0.0940331
0.0940336
0.094034
0.0940343
0.0940347
0.094035
0.0940353
0.0940356
0.0940358
0.094036
0.0940362
0.0940364
0.0940366
0.0940367
0.0940369
0.094037
0.0940371
0.0940371
0.0940372
0.0940373
0.0940373
0.0940374
0.0940374
0.0940374
0.0940374
0.0940374
0.0940374
0.0940374
0.0940374
0.0940373
0.0940373
0.0940372
0.0940371
0.0940371
0.094037
0.0940369
0.0940367
0.0940366
0.0940364
0.0940362
0.094036
0.0940358
0.0940356
0.0940353
0.094035
0.0940347
0.0940343
0.094034
0.0940336
0.0940331
0.0940327
0.0940322
0.0940317
0.0940312
0.0940306
0.0940301
0.0940295
0.0940289
0.0940283
0.0940278
0.0940272
0.0940266
0.0940261
0.0940255
0.0940251
0.093997
0.0939974
0.0939978
0.0939982
0.0939987
0.0939992
0.0939996
0.0940001
0.0940006
0.0940011
0.0940015
0.094002
0.0940024
0.0940028
0.0940033
0.0940037
0.094004
0.0940044
0.0940047
0.094005
0.0940053
0.0940056
0.0940059
0.0940061
0.0940063
0.0940065
0.0940067
0.0940068
0.094007
0.0940071
0.0940072
0.0940073
0.0940074
0.0940075
0.0940076
0.0940076
0.0940077
0.0940077
0.0940077
0.0940077
0.0940077
0.0940077
0.0940077
0.0940077
0.0940076
0.0940076
0.0940075
0.0940074
0.0940073
0.0940072
0.0940071
0.094007
0.0940068
0.0940067
0.0940065
0.0940063
0.0940061
0.0940059
0.0940056
0.0940053
0.094005
0.0940047
0.0940044
0.094004
0.0940037
0.0940033
0.0940028
0.0940024
0.094002
0.0940015
0.0940011
0.0940006
0.0940001
0.0939996
0.0939992
0.0939987
0.0939982
0.0939978
0.0939974
0.093997
0.0939689
0.0939691
0.0939694
0.0939698
0.0939701
0.0939705
0.0939709
0.0939713
0.0939717
0.0939721
0.0939724
0.0939728
0.0939732
0.0939736
0.0939739
0.0939743
0.0939746
0.0939749
0.0939752
0.0939755
0.0939758
0.093976
0.0939762
0.0939765
0.0939767
0.0939769
0.093977
0.0939772
0.0939773
0.0939774
0.0939776
0.0939777
0.0939777
0.0939778
0.0939779
0.0939779
0.093978
0.093978
0.093978
0.093978
0.093978
0.093978
0.093978
0.093978
0.0939779
0.0939779
0.0939778
0.0939777
0.0939777
0.0939776
0.0939774
0.0939773
0.0939772
0.093977
0.0939769
0.0939767
0.0939765
0.0939762
0.093976
0.0939758
0.0939755
0.0939752
0.0939749
0.0939746
0.0939743
0.0939739
0.0939736
0.0939732
0.0939728
0.0939724
0.0939721
0.0939717
0.0939713
0.0939709
0.0939705
0.0939701
0.0939698
0.0939694
0.0939691
0.0939689
0.0939406
0.0939408
0.093941
0.0939413
0.0939415
0.0939418
0.0939421
0.0939424
0.0939428
0.0939431
0.0939434
0.0939437
0.093944
0.0939444
0.0939447
0.093945
0.0939452
0.0939455
0.0939458
0.093946
0.0939463
0.0939465
0.0939467
0.0939469
0.0939471
0.0939473
0.0939474
0.0939476
0.0939477
0.0939478
0.0939479
0.093948
0.0939481
0.0939482
0.0939483
0.0939483
0.0939484
0.0939484
0.0939484
0.0939484
0.0939484
0.0939484
0.0939484
0.0939484
0.0939483
0.0939483
0.0939482
0.0939481
0.093948
0.0939479
0.0939478
0.0939477
0.0939476
0.0939474
0.0939473
0.0939471
0.0939469
0.0939467
0.0939465
0.0939463
0.093946
0.0939458
0.0939455
0.0939452
0.093945
0.0939447
0.0939444
0.093944
0.0939437
0.0939434
0.0939431
0.0939428
0.0939424
0.0939421
0.0939418
0.0939415
0.0939413
0.093941
0.0939408
0.0939406
0.0939121
0.0939123
0.0939125
0.0939127
0.0939129
0.0939131
0.0939133
0.0939136
0.0939139
0.0939141
0.0939144
0.0939147
0.0939149
0.0939152
0.0939154
0.0939157
0.0939159
0.0939162
0.0939164
0.0939166
0.0939168
0.093917
0.0939172
0.0939174
0.0939176
0.0939177
0.0939179
0.093918
0.0939182
0.0939183
0.0939184
0.0939185
0.0939185
0.0939186
0.0939187
0.0939187
0.0939188
0.0939188
0.0939188
0.0939188
0.0939188
0.0939188
0.0939188
0.0939188
0.0939187
0.0939187
0.0939186
0.0939185
0.0939185
0.0939184
0.0939183
0.0939182
0.093918
0.0939179
0.0939177
0.0939176
0.0939174
0.0939172
0.093917
0.0939168
0.0939166
0.0939164
0.0939162
0.0939159
0.0939157
0.0939154
0.0939152
0.0939149
0.0939147
0.0939144
0.0939141
0.0939139
0.0939136
0.0939133
0.0939131
0.0939129
0.0939127
0.0939125
0.0939123
0.0939121
0.0938836
0.0938837
0.0938838
0.093884
0.0938841
0.0938843
0.0938845
0.0938847
0.0938849
0.0938851
0.0938854
0.0938856
0.0938858
0.093886
0.0938862
0.0938865
0.0938867
0.0938869
0.0938871
0.0938873
0.0938875
0.0938876
0.0938878
0.093888
0.0938881
0.0938883
0.0938884
0.0938885
0.0938886
0.0938888
0.0938888
0.0938889
0.093889
0.0938891
0.0938891
0.0938892
0.0938892
0.0938892
0.0938893
0.0938893
0.0938893
0.0938893
0.0938892
0.0938892
0.0938892
0.0938891
0.0938891
0.093889
0.0938889
0.0938888
0.0938888
0.0938886
0.0938885
0.0938884
0.0938883
0.0938881
0.093888
0.0938878
0.0938876
0.0938875
0.0938873
0.0938871
0.0938869
0.0938867
0.0938865
0.0938862
0.093886
0.0938858
0.0938856
0.0938854
0.0938851
0.0938849
0.0938847
0.0938845
0.0938843
0.0938841
0.093884
0.0938838
0.0938837
0.0938836
0.093855
0.093855
0.0938551
0.0938552
0.0938554
0.0938555
0.0938557
0.0938558
0.093856
0.0938562
0.0938563
0.0938565
0.0938567
0.0938569
0.0938571
0.0938573
0.0938574
0.0938576
0.0938578
0.093858
0.0938581
0.0938583
0.0938584
0.0938586
0.0938587
0.0938588
0.093859
0.0938591
0.0938592
0.0938593
0.0938594
0.0938594
0.0938595
0.0938596
0.0938596
0.0938597
0.0938597
0.0938597
0.0938598
0.0938598
0.0938598
0.0938598
0.0938597
0.0938597
0.0938597
0.0938596
0.0938596
0.0938595
0.0938594
0.0938594
0.0938593
0.0938592
0.0938591
0.093859
0.0938588
0.0938587
0.0938586
0.0938584
0.0938583
0.0938581
0.093858
0.0938578
0.0938576
0.0938574
0.0938573
0.0938571
0.0938569
0.0938567
0.0938565
0.0938563
0.0938562
0.093856
0.0938558
0.0938557
0.0938555
0.0938554
0.0938552
0.0938551
0.093855
0.093855
0.0938263
0.0938263
0.0938264
0.0938264
0.0938265
0.0938266
0.0938268
0.0938269
0.093827
0.0938272
0.0938273
0.0938275
0.0938276
0.0938278
0.0938279
0.0938281
0.0938282
0.0938284
0.0938285
0.0938287
0.0938288
0.093829
0.0938291
0.0938292
0.0938293
0.0938295
0.0938296
0.0938297
0.0938298
0.0938298
0.0938299
0.09383
0.0938301
0.0938301
0.0938302
0.0938302
0.0938302
0.0938303
0.0938303
0.0938303
0.0938303
0.0938303
0.0938303
0.0938302
0.0938302
0.0938302
0.0938301
0.0938301
0.09383
0.0938299
0.0938298
0.0938298
0.0938297
0.0938296
0.0938295
0.0938293
0.0938292
0.0938291
0.093829
0.0938288
0.0938287
0.0938285
0.0938284
0.0938282
0.0938281
0.0938279
0.0938278
0.0938276
0.0938275
0.0938273
0.0938272
0.093827
0.0938269
0.0938268
0.0938266
0.0938265
0.0938264
0.0938264
0.0938263
0.0938263
0.0937975