/*--------------------------------*- C++ -*----------------------------------*\
  =========                 |
  \\      /  F ield         | OpenFOAM: The Open Source CFD Toolbox
   \\    /   O peration     | Website:  https://openfoam.org
    \\  /    A nd           | Version:  11
     \\/     M anipulation  |
\*---------------------------------------------------------------------------*/
FoamFile
{
    format      ascii;
    class       volScalarField;
    location    "331";
    object      p;
}
// * * * * * * * * * * * * * * * * * * * * * * * * * * * * * * * * * * * * * //

dimensions      [0 2 -2 0 0 0 0];

internalField   nonuniform List<scalar> 
332800
(
0.300368
0.296194
0.293264
0.291578
0.290463
0.289642
0.289024
0.288556
0.288196
0.287915
0.28769
0.287509
0.287359
0.287235
0.287129
0.287039
0.28696
0.286892
0.286832
0.286779
0.286731
0.286689
0.286651
0.286617
0.286586
0.286559
0.286534
0.286511
0.286491
0.286474
0.286458
0.286444
0.286432
0.286421
0.286412
0.286405
0.286399
0.286395
0.286392
0.286391
0.286391
0.286392
0.286395
0.286399
0.286405
0.286412
0.286421
0.286432
0.286444
0.286458
0.286474
0.286491
0.286511
0.286534
0.286559
0.286586
0.286617
0.286651
0.286689
0.286731
0.286779
0.286832
0.286892
0.28696
0.287039
0.287129
0.287235
0.287359
0.287509
0.28769
0.287915
0.288196
0.288556
0.289024
0.289642
0.290463
0.291578
0.293264
0.296194
0.300368
0.291047
0.290796
0.290372
0.289898
0.289445
0.289036
0.288679
0.288374
0.288114
0.287893
0.287705
0.287544
0.287406
0.287287
0.287184
0.287094
0.287015
0.286945
0.286883
0.286828
0.286779
0.286735
0.286695
0.28666
0.286628
0.286599
0.286573
0.286549
0.286529
0.28651
0.286494
0.286479
0.286466
0.286455
0.286446
0.286439
0.286433
0.286428
0.286425
0.286424
0.286424
0.286425
0.286428
0.286433
0.286439
0.286446
0.286455
0.286466
0.286479
0.286494
0.28651
0.286529
0.286549
0.286573
0.286599
0.286628
0.28666
0.286695
0.286735
0.286779
0.286828
0.286883
0.286945
0.287015
0.287094
0.287184
0.287287
0.287406
0.287544
0.287705
0.287893
0.288114
0.288374
0.288679
0.289036
0.289445
0.289898
0.290372
0.290796
0.291047
0.288713
0.288913
0.289006
0.288921
0.288747
0.288545
0.28834
0.288144
0.287961
0.287795
0.287646
0.287512
0.287394
0.287288
0.287194
0.287111
0.287036
0.286969
0.286909
0.286855
0.286807
0.286763
0.286724
0.286689
0.286657
0.286628
0.286602
0.286578
0.286557
0.286538
0.286522
0.286507
0.286494
0.286483
0.286474
0.286466
0.28646
0.286455
0.286452
0.286451
0.286451
0.286452
0.286455
0.28646
0.286466
0.286474
0.286483
0.286494
0.286507
0.286522
0.286538
0.286557
0.286578
0.286602
0.286628
0.286657
0.286689
0.286724
0.286763
0.286807
0.286855
0.286909
0.286969
0.287036
0.287111
0.287194
0.287288
0.287394
0.287512
0.287646
0.287795
0.287961
0.288144
0.28834
0.288545
0.288747
0.288921
0.289006
0.288913
0.288713
0.287805
0.287999
0.288143
0.288174
0.288133
0.288053
0.287953
0.287843
0.287731
0.28762
0.287514
0.287415
0.287322
0.287237
0.287159
0.287087
0.287022
0.286962
0.286908
0.286859
0.286814
0.286773
0.286736
0.286702
0.286671
0.286644
0.286618
0.286596
0.286575
0.286557
0.28654
0.286526
0.286513
0.286503
0.286493
0.286486
0.28648
0.286475
0.286472
0.286471
0.286471
0.286472
0.286475
0.28648
0.286486
0.286493
0.286503
0.286513
0.286526
0.28654
0.286557
0.286575
0.286596
0.286618
0.286644
0.286671
0.286702
0.286736
0.286773
0.286814
0.286859
0.286908
0.286962
0.287022
0.287087
0.287159
0.287237
0.287322
0.287415
0.287514
0.28762
0.287731
0.287843
0.287953
0.288053
0.288133
0.288174
0.288143
0.287999
0.287805
0.287329
0.28748
0.287608
0.287671
0.287685
0.287667
0.287626
0.287571
0.287506
0.287437
0.287366
0.287295
0.287227
0.287161
0.287099
0.287041
0.286987
0.286936
0.286889
0.286846
0.286806
0.286769
0.286735
0.286704
0.286676
0.28665
0.286626
0.286605
0.286585
0.286568
0.286552
0.286538
0.286526
0.286516
0.286507
0.2865
0.286494
0.28649
0.286487
0.286485
0.286485
0.286487
0.28649
0.286494
0.2865
0.286507
0.286516
0.286526
0.286538
0.286552
0.286568
0.286585
0.286605
0.286626
0.28665
0.286676
0.286704
0.286735
0.286769
0.286806
0.286846
0.286889
0.286936
0.286987
0.287041
0.287099
0.287161
0.287227
0.287295
0.287366
0.287437
0.287506
0.287571
0.287626
0.287667
0.287685
0.287671
0.287608
0.28748
0.287329
0.287052
0.287163
0.287266
0.28733
0.287363
0.287372
0.287362
0.287338
0.287305
0.287264
0.287219
0.287171
0.287122
0.287074
0.287027
0.286981
0.286938
0.286896
0.286857
0.28682
0.286785
0.286753
0.286723
0.286696
0.28667
0.286647
0.286625
0.286605
0.286588
0.286571
0.286557
0.286544
0.286533
0.286523
0.286515
0.286508
0.286502
0.286498
0.286496
0.286494
0.286494
0.286496
0.286498
0.286502
0.286508
0.286515
0.286523
0.286533
0.286544
0.286557
0.286571
0.286588
0.286605
0.286625
0.286647
0.28667
0.286696
0.286723
0.286753
0.286785
0.28682
0.286857
0.286896
0.286938
0.286981
0.287027
0.287074
0.287122
0.287171
0.287219
0.287264
0.287305
0.287338
0.287362
0.287372
0.287363
0.28733
0.287266
0.287163
0.287052
0.286873
0.286956
0.287036
0.287092
0.287128
0.287148
0.287153
0.287147
0.287132
0.28711
0.287083
0.287052
0.287019
0.286984
0.286949
0.286915
0.286881
0.286848
0.286816
0.286785
0.286756
0.286729
0.286703
0.286679
0.286657
0.286636
0.286617
0.286599
0.286583
0.286568
0.286555
0.286544
0.286533
0.286524
0.286517
0.28651
0.286505
0.286501
0.286499
0.286498
0.286498
0.286499
0.286501
0.286505
0.28651
0.286517
0.286524
0.286533
0.286544
0.286555
0.286568
0.286583
0.286599
0.286617
0.286636
0.286657
0.286679
0.286703
0.286729
0.286756
0.286785
0.286816
0.286848
0.286881
0.286915
0.286949
0.286984
0.287019
0.287052
0.287083
0.28711
0.287132
0.287147
0.287153
0.287148
0.287128
0.287092
0.287036
0.286956
0.286873
0.286748
0.28681
0.286872
0.28692
0.286954
0.286976
0.286988
0.286992
0.286988
0.286977
0.286962
0.286943
0.286921
0.286897
0.286872
0.286846
0.28682
0.286795
0.286769
0.286745
0.286721
0.286698
0.286677
0.286656
0.286637
0.286619
0.286602
0.286587
0.286573
0.28656
0.286548
0.286538
0.286528
0.28652
0.286513
0.286508
0.286503
0.2865
0.286497
0.286496
0.286496
0.286497
0.2865
0.286503
0.286508
0.286513
0.28652
0.286528
0.286538
0.286548
0.28656
0.286573
0.286587
0.286602
0.286619
0.286637
0.286656
0.286677
0.286698
0.286721
0.286745
0.286769
0.286795
0.28682
0.286846
0.286872
0.286897
0.286921
0.286943
0.286962
0.286977
0.286988
0.286992
0.286988
0.286976
0.286954
0.28692
0.286872
0.28681
0.286748
0.286654
0.286702
0.286752
0.286791
0.286821
0.286843
0.286857
0.286865
0.286867
0.286864
0.286856
0.286845
0.286832
0.286816
0.286798
0.286779
0.28676
0.28674
0.286721
0.286701
0.286682
0.286664
0.286646
0.286629
0.286613
0.286598
0.286583
0.28657
0.286558
0.286546
0.286536
0.286527
0.286519
0.286512
0.286505
0.2865
0.286496
0.286493
0.286491
0.28649
0.28649
0.286491
0.286493
0.286496
0.2865
0.286505
0.286512
0.286519
0.286527
0.286536
0.286546
0.286558
0.28657
0.286583
0.286598
0.286613
0.286629
0.286646
0.286664
0.286682
0.286701
0.286721
0.28674
0.28676
0.286779
0.286798
0.286816
0.286832
0.286845
0.286856
0.286864
0.286867
0.286865
0.286857
0.286843
0.286821
0.286791
0.286752
0.286702
0.286654
0.286582
0.286619
0.286658
0.286691
0.286716
0.286736
0.286751
0.286761
0.286766
0.286767
0.286765
0.286759
0.286751
0.28674
0.286729
0.286715
0.286701
0.286687
0.286672
0.286656
0.286641
0.286627
0.286612
0.286598
0.286585
0.286572
0.28656
0.286549
0.286539
0.286529
0.28652
0.286512
0.286505
0.286499
0.286493
0.286489
0.286485
0.286483
0.286481
0.28648
0.28648
0.286481
0.286483
0.286485
0.286489
0.286493
0.286499
0.286505
0.286512
0.28652
0.286529
0.286539
0.286549
0.28656
0.286572
0.286585
0.286598
0.286612
0.286627
0.286641
0.286656
0.286672
0.286687
0.286701
0.286715
0.286729
0.28674
0.286751
0.286759
0.286765
0.286767
0.286766
0.286761
0.286751
0.286736
0.286716
0.286691
0.286658
0.286619
0.286582
0.286523
0.286553
0.286584
0.286611
0.286633
0.28665
0.286664
0.286675
0.286681
0.286684
0.286685
0.286683
0.286678
0.286672
0.286664
0.286655
0.286645
0.286634
0.286623
0.286612
0.2866
0.286588
0.286577
0.286566
0.286555
0.286544
0.286534
0.286525
0.286516
0.286508
0.286501
0.286494
0.286488
0.286482
0.286478
0.286474
0.286471
0.286469
0.286467
0.286466
0.286466
0.286467
0.286469
0.286471
0.286474
0.286478
0.286482
0.286488
0.286494
0.286501
0.286508
0.286516
0.286525
0.286534
0.286544
0.286555
0.286566
0.286577
0.286588
0.2866
0.286612
0.286623
0.286634
0.286645
0.286655
0.286664
0.286672
0.286678
0.286683
0.286685
0.286684
0.286681
0.286675
0.286664
0.28665
0.286633
0.286611
0.286584
0.286553
0.286523
0.286474
0.286498
0.286523
0.286545
0.286563
0.286579
0.286592
0.286601
0.286609
0.286613
0.286615
0.286615
0.286613
0.28661
0.286605
0.286599
0.286592
0.286584
0.286576
0.286568
0.286559
0.28655
0.286541
0.286532
0.286523
0.286514
0.286506
0.286499
0.286491
0.286485
0.286478
0.286473
0.286468
0.286463
0.286459
0.286456
0.286453
0.286451
0.28645
0.286449
0.286449
0.28645
0.286451
0.286453
0.286456
0.286459
0.286463
0.286468
0.286473
0.286478
0.286485
0.286491
0.286499
0.286506
0.286514
0.286523
0.286532
0.286541
0.28655
0.286559
0.286568
0.286576
0.286584
0.286592
0.286599
0.286605
0.28661
0.286613
0.286615
0.286615
0.286613
0.286609
0.286601
0.286592
0.286579
0.286563
0.286545
0.286523
0.286498
0.286474
0.286432
0.286451
0.286472
0.28649
0.286505
0.286518
0.28653
0.286539
0.286546
0.286551
0.286554
0.286555
0.286555
0.286554
0.286551
0.286547
0.286542
0.286537
0.286531
0.286525
0.286518
0.286511
0.286504
0.286497
0.28649
0.286483
0.286477
0.286471
0.286465
0.286459
0.286454
0.286449
0.286445
0.286441
0.286438
0.286436
0.286433
0.286432
0.286431
0.28643
0.28643
0.286431
0.286432
0.286433
0.286436
0.286438
0.286441
0.286445
0.286449
0.286454
0.286459
0.286465
0.286471
0.286477
0.286483
0.28649
0.286497
0.286504
0.286511
0.286518
0.286525
0.286531
0.286537
0.286542
0.286547
0.286551
0.286554
0.286555
0.286555
0.286554
0.286551
0.286546
0.286539
0.28653
0.286518
0.286505
0.28649
0.286472
0.286451
0.286432
0.286394
0.28641
0.286427
0.286442
0.286455
0.286466
0.286476
0.286484
0.286491
0.286496
0.286499
0.286501
0.286502
0.286502
0.286501
0.286498
0.286495
0.286492
0.286488
0.286483
0.286478
0.286473
0.286468
0.286462
0.286457
0.286452
0.286446
0.286442
0.286437
0.286432
0.286428
0.286424
0.286421
0.286418
0.286415
0.286413
0.286411
0.28641
0.286409
0.286408
0.286408
0.286409
0.28641
0.286411
0.286413
0.286415
0.286418
0.286421
0.286424
0.286428
0.286432
0.286437
0.286442
0.286446
0.286452
0.286457
0.286462
0.286468
0.286473
0.286478
0.286483
0.286488
0.286492
0.286495
0.286498
0.286501
0.286502
0.286502
0.286501
0.286499
0.286496
0.286491
0.286484
0.286476
0.286466
0.286455
0.286442
0.286427
0.28641
0.286394
0.28636
0.286373
0.286387
0.286399
0.28641
0.28642
0.286428
0.286435
0.286441
0.286446
0.28645
0.286452
0.286454
0.286454
0.286454
0.286453
0.286451
0.286449
0.286446
0.286443
0.286439
0.286436
0.286432
0.286428
0.286424
0.286419
0.286415
0.286411
0.286408
0.286404
0.286401
0.286398
0.286395
0.286392
0.28639
0.286389
0.286387
0.286386
0.286385
0.286385
0.286385
0.286385
0.286386
0.286387
0.286389
0.28639
0.286392
0.286395
0.286398
0.286401
0.286404
0.286408
0.286411
0.286415
0.286419
0.286424
0.286428
0.286432
0.286436
0.286439
0.286443
0.286446
0.286449
0.286451
0.286453
0.286454
0.286454
0.286454
0.286452
0.28645
0.286446
0.286441
0.286435
0.286428
0.28642
0.28641
0.286399
0.286387
0.286373
0.28636
0.286329
0.286339
0.28635
0.28636
0.286369
0.286378
0.286385
0.286391
0.286397
0.286401
0.286405
0.286408
0.286409
0.28641
0.286411
0.286411
0.28641
0.286408
0.286407
0.286404
0.286402
0.286399
0.286396
0.286393
0.28639
0.286387
0.286384
0.286381
0.286378
0.286375
0.286373
0.28637
0.286368
0.286366
0.286364
0.286363
0.286362
0.286361
0.28636
0.28636
0.28636
0.28636
0.286361
0.286362
0.286363
0.286364
0.286366
0.286368
0.28637
0.286373
0.286375
0.286378
0.286381
0.286384
0.286387
0.28639
0.286393
0.286396
0.286399
0.286402
0.286404
0.286407
0.286408
0.28641
0.286411
0.286411
0.28641
0.286409
0.286408
0.286405
0.286401
0.286397
0.286391
0.286385
0.286378
0.286369
0.28636
0.28635
0.286339
0.286329
0.286299
0.286307
0.286316
0.286325
0.286332
0.286339
0.286346
0.286351
0.286356
0.28636
0.286363
0.286366
0.286368
0.286369
0.28637
0.28637
0.28637
0.28637
0.286368
0.286367
0.286365
0.286364
0.286361
0.286359
0.286357
0.286355
0.286352
0.28635
0.286348
0.286346
0.286344
0.286342
0.28634
0.286338
0.286337
0.286336
0.286335
0.286334
0.286334
0.286334
0.286334
0.286334
0.286334
0.286335
0.286336
0.286337
0.286338
0.28634
0.286342
0.286344
0.286346
0.286348
0.28635
0.286352
0.286355
0.286357
0.286359
0.286361
0.286364
0.286365
0.286367
0.286368
0.28637
0.28637
0.28637
0.28637
0.286369
0.286368
0.286366
0.286363
0.28636
0.286356
0.286351
0.286346
0.286339
0.286332
0.286325
0.286316
0.286307
0.286299
0.28627
0.286277
0.286285
0.286291
0.286298
0.286304
0.286309
0.286314
0.286318
0.286322
0.286325
0.286327
0.286329
0.286331
0.286332
0.286332
0.286333
0.286332
0.286332
0.286331
0.28633
0.286329
0.286327
0.286326
0.286324
0.286322
0.286321
0.286319
0.286317
0.286316
0.286314
0.286313
0.286311
0.28631
0.286309
0.286308
0.286307
0.286307
0.286307
0.286306
0.286306
0.286307
0.286307
0.286307
0.286308
0.286309
0.28631
0.286311
0.286313
0.286314
0.286316
0.286317
0.286319
0.286321
0.286322
0.286324
0.286326
0.286327
0.286329
0.28633
0.286331
0.286332
0.286332
0.286333
0.286332
0.286332
0.286331
0.286329
0.286327
0.286325
0.286322
0.286318
0.286314
0.286309
0.286304
0.286298
0.286291
0.286285
0.286277
0.28627
0.286242
0.286248
0.286254
0.28626
0.286265
0.28627
0.286274
0.286278
0.286282
0.286285
0.286288
0.286291
0.286292
0.286294
0.286295
0.286296
0.286296
0.286297
0.286296
0.286296
0.286295
0.286295
0.286294
0.286293
0.286292
0.28629
0.286289
0.286288
0.286287
0.286286
0.286284
0.286283
0.286282
0.286281
0.286281
0.28628
0.286279
0.286279
0.286279
0.286278
0.286278
0.286279
0.286279
0.286279
0.28628
0.286281
0.286281
0.286282
0.286283
0.286284
0.286286
0.286287
0.286288
0.286289
0.28629
0.286292
0.286293
0.286294
0.286295
0.286295
0.286296
0.286296
0.286297
0.286296
0.286296
0.286295
0.286294
0.286292
0.286291
0.286288
0.286285
0.286282
0.286278
0.286274
0.28627
0.286265
0.28626
0.286254
0.286248
0.286242
0.286215
0.286219
0.286224
0.286229
0.286233
0.286238
0.286241
0.286245
0.286248
0.286251
0.286253
0.286256
0.286257
0.286259
0.28626
0.286261
0.286262
0.286262
0.286262
0.286262
0.286262
0.286261
0.286261
0.28626
0.286259
0.286259
0.286258
0.286257
0.286256
0.286255
0.286254
0.286254
0.286253
0.286252
0.286252
0.286251
0.286251
0.28625
0.28625
0.28625
0.28625
0.28625
0.28625
0.286251
0.286251
0.286252
0.286252
0.286253
0.286254
0.286254
0.286255
0.286256
0.286257
0.286258
0.286259
0.286259
0.28626
0.286261
0.286261
0.286262
0.286262
0.286262
0.286262
0.286262
0.286261
0.28626
0.286259
0.286257
0.286256
0.286253
0.286251
0.286248
0.286245
0.286241
0.286238
0.286233
0.286229
0.286224
0.286219
0.286215
0.286188
0.286191
0.286195
0.286199
0.286203
0.286206
0.28621
0.286213
0.286215
0.286218
0.28622
0.286222
0.286224
0.286225
0.286226
0.286227
0.286228
0.286228
0.286229
0.286229
0.286229
0.286229
0.286228
0.286228
0.286228
0.286227
0.286227
0.286226
0.286225
0.286225
0.286224
0.286224
0.286223
0.286223
0.286222
0.286222
0.286221
0.286221
0.286221
0.286221
0.286221
0.286221
0.286221
0.286221
0.286222
0.286222
0.286223
0.286223
0.286224
0.286224
0.286225
0.286225
0.286226
0.286227
0.286227
0.286228
0.286228
0.286228
0.286229
0.286229
0.286229
0.286229
0.286228
0.286228
0.286227
0.286226
0.286225
0.286224
0.286222
0.28622
0.286218
0.286215
0.286213
0.28621
0.286206
0.286203
0.286199
0.286195
0.286191
0.286188
0.286161
0.286164
0.286167
0.28617
0.286173
0.286176
0.286179
0.286181
0.286184
0.286186
0.286188
0.286189
0.286191
0.286192
0.286193
0.286194
0.286195
0.286196
0.286196
0.286196
0.286197
0.286197
0.286197
0.286196
0.286196
0.286196
0.286196
0.286195
0.286195
0.286194
0.286194
0.286194
0.286193
0.286193
0.286193
0.286192
0.286192
0.286192
0.286192
0.286192
0.286192
0.286192
0.286192
0.286192
0.286192
0.286193
0.286193
0.286193
0.286194
0.286194
0.286194
0.286195
0.286195
0.286196
0.286196
0.286196
0.286196
0.286197
0.286197
0.286197
0.286196
0.286196
0.286196
0.286195
0.286194
0.286193
0.286192
0.286191
0.286189
0.286188
0.286186
0.286184
0.286181
0.286179
0.286176
0.286173
0.28617
0.286167
0.286164
0.286161
0.286134
0.286136
0.286139
0.286141
0.286144
0.286146
0.286148
0.286151
0.286153
0.286154
0.286156
0.286158
0.286159
0.28616
0.286161
0.286162
0.286163
0.286164
0.286164
0.286165
0.286165
0.286165
0.286165
0.286165
0.286165
0.286165
0.286165
0.286164
0.286164
0.286164
0.286164
0.286164
0.286163
0.286163
0.286163
0.286163
0.286163
0.286162
0.286162
0.286162
0.286162
0.286162
0.286162
0.286163
0.286163
0.286163
0.286163
0.286163
0.286164
0.286164
0.286164
0.286164
0.286164
0.286165
0.286165
0.286165
0.286165
0.286165
0.286165
0.286165
0.286165
0.286164
0.286164
0.286163
0.286162
0.286161
0.28616
0.286159
0.286158
0.286156
0.286154
0.286153
0.286151
0.286148
0.286146
0.286144
0.286141
0.286139
0.286136
0.286134
0.286107
0.286109
0.286111
0.286113
0.286115
0.286117
0.286119
0.286121
0.286122
0.286124
0.286125
0.286127
0.286128
0.286129
0.28613
0.286131
0.286132
0.286132
0.286133
0.286133
0.286133
0.286134
0.286134
0.286134
0.286134
0.286134
0.286134
0.286134
0.286134
0.286134
0.286134
0.286133
0.286133
0.286133
0.286133
0.286133
0.286133
0.286133
0.286133
0.286133
0.286133
0.286133
0.286133
0.286133
0.286133
0.286133
0.286133
0.286133
0.286133
0.286134
0.286134
0.286134
0.286134
0.286134
0.286134
0.286134
0.286134
0.286134
0.286134
0.286133
0.286133
0.286133
0.286132
0.286132
0.286131
0.28613
0.286129
0.286128
0.286127
0.286125
0.286124
0.286122
0.286121
0.286119
0.286117
0.286115
0.286113
0.286111
0.286109
0.286107
0.28608
0.286081
0.286083
0.286085
0.286086
0.286088
0.286089
0.286091
0.286092
0.286094
0.286095
0.286096
0.286097
0.286098
0.286099
0.2861
0.286101
0.286101
0.286102
0.286102
0.286103
0.286103
0.286103
0.286103
0.286103
0.286103
0.286103
0.286103
0.286103
0.286103
0.286103
0.286103
0.286103
0.286103
0.286103
0.286103
0.286103
0.286103
0.286103
0.286103
0.286103
0.286103
0.286103
0.286103
0.286103
0.286103
0.286103
0.286103
0.286103
0.286103
0.286103
0.286103
0.286103
0.286103
0.286103
0.286103
0.286103
0.286103
0.286103
0.286103
0.286102
0.286102
0.286101
0.286101
0.2861
0.286099
0.286098
0.286097
0.286096
0.286095
0.286094
0.286092
0.286091
0.286089
0.286088
0.286086
0.286085
0.286083
0.286081
0.28608
0.286052
0.286054
0.286055
0.286056
0.286058
0.286059
0.28606
0.286062
0.286063
0.286064
0.286065
0.286066
0.286067
0.286068
0.286069
0.286069
0.28607
0.286071
0.286071
0.286072
0.286072
0.286072
0.286072
0.286073
0.286073
0.286073
0.286073
0.286073
0.286073
0.286073
0.286073
0.286073
0.286073
0.286073
0.286073
0.286073
0.286073
0.286073
0.286073
0.286073
0.286073
0.286073
0.286073
0.286073
0.286073
0.286073
0.286073
0.286073
0.286073
0.286073
0.286073
0.286073
0.286073
0.286073
0.286073
0.286073
0.286073
0.286072
0.286072
0.286072
0.286072
0.286071
0.286071
0.28607
0.286069
0.286069
0.286068
0.286067
0.286066
0.286065
0.286064
0.286063
0.286062
0.28606
0.286059
0.286058
0.286056
0.286055
0.286054
0.286052
0.286025
0.286026
0.286027
0.286028
0.286029
0.28603
0.286031
0.286032
0.286033
0.286034
0.286035
0.286036
0.286037
0.286038
0.286038
0.286039
0.28604
0.28604
0.286041
0.286041
0.286042
0.286042
0.286042
0.286042
0.286043
0.286043
0.286043
0.286043
0.286043
0.286043
0.286043
0.286043
0.286043
0.286043
0.286043
0.286043
0.286043
0.286043
0.286043
0.286043
0.286043
0.286043
0.286043
0.286043
0.286043
0.286043
0.286043
0.286043
0.286043
0.286043
0.286043
0.286043
0.286043
0.286043
0.286043
0.286043
0.286042
0.286042
0.286042
0.286042
0.286041
0.286041
0.28604
0.28604
0.286039
0.286038
0.286038
0.286037
0.286036
0.286035
0.286034
0.286033
0.286032
0.286031
0.28603
0.286029
0.286028
0.286027
0.286026
0.286025
0.285997
0.285998
0.285999
0.286
0.286001
0.286002
0.286003
0.286003
0.286004
0.286005
0.286006
0.286007
0.286007
0.286008
0.286009
0.286009
0.28601
0.28601
0.286011
0.286011
0.286011
0.286012
0.286012
0.286012
0.286013
0.286013
0.286013
0.286013
0.286013
0.286013
0.286013
0.286013
0.286013
0.286014
0.286014
0.286014
0.286014
0.286014
0.286014
0.286014
0.286014
0.286014
0.286014
0.286014
0.286014
0.286014
0.286014
0.286013
0.286013
0.286013
0.286013
0.286013
0.286013
0.286013
0.286013
0.286013
0.286012
0.286012
0.286012
0.286011
0.286011
0.286011
0.28601
0.28601
0.286009
0.286009
0.286008
0.286007
0.286007
0.286006
0.286005
0.286004
0.286003
0.286003
0.286002
0.286001
0.286
0.285999
0.285998
0.285997
0.28597
0.28597
0.285971
0.285972
0.285972
0.285973
0.285974
0.285974
0.285975
0.285976
0.285977
0.285977
0.285978
0.285978
0.285979
0.285979
0.28598
0.28598
0.285981
0.285981
0.285981
0.285982
0.285982
0.285982
0.285983
0.285983
0.285983
0.285983
0.285983
0.285983
0.285983
0.285984
0.285984
0.285984
0.285984
0.285984
0.285984
0.285984
0.285984
0.285984
0.285984
0.285984
0.285984
0.285984
0.285984
0.285984
0.285984
0.285984
0.285984
0.285983
0.285983
0.285983
0.285983
0.285983
0.285983
0.285983
0.285982
0.285982
0.285982
0.285981
0.285981
0.285981
0.28598
0.28598
0.285979
0.285979
0.285978
0.285978
0.285977
0.285977
0.285976
0.285975
0.285974
0.285974
0.285973
0.285972
0.285972
0.285971
0.28597
0.28597
0.285942
0.285942
0.285943
0.285943
0.285944
0.285944
0.285945
0.285946
0.285946
0.285947
0.285947
0.285948
0.285948
0.285949
0.285949
0.28595
0.28595
0.285951
0.285951
0.285951
0.285952
0.285952
0.285952
0.285953
0.285953
0.285953
0.285953
0.285953
0.285953
0.285954
0.285954
0.285954
0.285954
0.285954
0.285954
0.285954
0.285954
0.285954
0.285954
0.285954
0.285954
0.285954
0.285954
0.285954
0.285954
0.285954
0.285954
0.285954
0.285954
0.285954
0.285954
0.285953
0.285953
0.285953
0.285953
0.285953
0.285953
0.285952
0.285952
0.285952
0.285951
0.285951
0.285951
0.28595
0.28595
0.285949
0.285949
0.285948
0.285948
0.285947
0.285947
0.285946
0.285946
0.285945
0.285944
0.285944
0.285943
0.285943
0.285942
0.285942
0.285914
0.285914
0.285915
0.285915
0.285915
0.285916
0.285916
0.285917
0.285917
0.285918
0.285918
0.285919
0.285919
0.28592
0.28592
0.28592
0.285921
0.285921
0.285921
0.285922
0.285922
0.285922
0.285923
0.285923
0.285923
0.285923
0.285923
0.285924
0.285924
0.285924
0.285924
0.285924
0.285924
0.285924
0.285924
0.285924
0.285924
0.285924
0.285924
0.285924
0.285924
0.285924
0.285924
0.285924
0.285924
0.285924
0.285924
0.285924
0.285924
0.285924
0.285924
0.285924
0.285924
0.285923
0.285923
0.285923
0.285923
0.285923
0.285922
0.285922
0.285922
0.285921
0.285921
0.285921
0.28592
0.28592
0.28592
0.285919
0.285919
0.285918
0.285918
0.285917
0.285917
0.285916
0.285916
0.285915
0.285915
0.285915
0.285914
0.285914
0.285886
0.285886
0.285886
0.285886
0.285887
0.285887
0.285888
0.285888
0.285888
0.285889
0.285889
0.28589
0.28589
0.28589
0.285891
0.285891
0.285891
0.285892
0.285892
0.285892
0.285892
0.285893
0.285893
0.285893
0.285893
0.285894
0.285894
0.285894
0.285894
0.285894
0.285894
0.285894
0.285894
0.285895
0.285895
0.285895
0.285895
0.285895
0.285895
0.285895
0.285895
0.285895
0.285895
0.285895
0.285895
0.285895
0.285895
0.285894
0.285894
0.285894
0.285894
0.285894
0.285894
0.285894
0.285894
0.285893
0.285893
0.285893
0.285893
0.285892
0.285892
0.285892
0.285892
0.285891
0.285891
0.285891
0.28589
0.28589
0.28589
0.285889
0.285889
0.285888
0.285888
0.285888
0.285887
0.285887
0.285886
0.285886
0.285886
0.285886
0.285857
0.285857
0.285858
0.285858
0.285858
0.285859
0.285859
0.285859
0.285859
0.28586
0.28586
0.28586
0.285861
0.285861
0.285861
0.285862
0.285862
0.285862
0.285862
0.285863
0.285863
0.285863
0.285863
0.285864
0.285864
0.285864
0.285864
0.285864
0.285864
0.285865
0.285865
0.285865
0.285865
0.285865
0.285865
0.285865
0.285865
0.285865
0.285865
0.285865
0.285865
0.285865
0.285865
0.285865
0.285865
0.285865
0.285865
0.285865
0.285865
0.285865
0.285865
0.285864
0.285864
0.285864
0.285864
0.285864
0.285864
0.285863
0.285863
0.285863
0.285863
0.285862
0.285862
0.285862
0.285862
0.285861
0.285861
0.285861
0.28586
0.28586
0.28586
0.285859
0.285859
0.285859
0.285859
0.285858
0.285858
0.285858
0.285857
0.285857
0.285829
0.285829
0.285829
0.285829
0.28583
0.28583
0.28583
0.28583
0.285831
0.285831
0.285831
0.285831
0.285832
0.285832
0.285832
0.285832
0.285833
0.285833
0.285833
0.285833
0.285834
0.285834
0.285834
0.285834
0.285834
0.285834
0.285835
0.285835
0.285835
0.285835
0.285835
0.285835
0.285835
0.285835
0.285835
0.285835
0.285835
0.285835
0.285836
0.285836
0.285836
0.285836
0.285835
0.285835
0.285835
0.285835
0.285835
0.285835
0.285835
0.285835
0.285835
0.285835
0.285835
0.285835
0.285834
0.285834
0.285834
0.285834
0.285834
0.285834
0.285833
0.285833
0.285833
0.285833
0.285832
0.285832
0.285832
0.285832
0.285831
0.285831
0.285831
0.285831
0.28583
0.28583
0.28583
0.28583
0.285829
0.285829
0.285829
0.285829
0.2858
0.2858
0.285801
0.285801
0.285801
0.285801
0.285801
0.285801
0.285802
0.285802
0.285802
0.285802
0.285803
0.285803
0.285803
0.285803
0.285803
0.285804
0.285804
0.285804
0.285804
0.285804
0.285805
0.285805
0.285805
0.285805
0.285805
0.285805
0.285805
0.285805
0.285806
0.285806
0.285806
0.285806
0.285806
0.285806
0.285806
0.285806
0.285806
0.285806
0.285806
0.285806
0.285806
0.285806
0.285806
0.285806
0.285806
0.285806
0.285806
0.285806
0.285805
0.285805
0.285805
0.285805
0.285805
0.285805
0.285805
0.285805
0.285804
0.285804
0.285804
0.285804
0.285804
0.285803
0.285803
0.285803
0.285803
0.285803
0.285802
0.285802
0.285802
0.285802
0.285801
0.285801
0.285801
0.285801
0.285801
0.285801
0.2858
0.2858
0.285772
0.285772
0.285772
0.285772
0.285772
0.285772
0.285772
0.285773
0.285773
0.285773
0.285773
0.285773
0.285773
0.285774
0.285774
0.285774
0.285774
0.285774
0.285774
0.285775
0.285775
0.285775
0.285775
0.285775
0.285775
0.285776
0.285776
0.285776
0.285776
0.285776
0.285776
0.285776
0.285776
0.285776
0.285776
0.285776
0.285776
0.285776
0.285776
0.285776
0.285776
0.285776
0.285776
0.285776
0.285776
0.285776
0.285776
0.285776
0.285776
0.285776
0.285776
0.285776
0.285776
0.285776
0.285776
0.285775
0.285775
0.285775
0.285775
0.285775
0.285775
0.285774
0.285774
0.285774
0.285774
0.285774
0.285774
0.285773
0.285773
0.285773
0.285773
0.285773
0.285773
0.285772
0.285772
0.285772
0.285772
0.285772
0.285772
0.285772
0.285743
0.285743
0.285743
0.285743
0.285743
0.285743
0.285743
0.285744
0.285744
0.285744
0.285744
0.285744
0.285744
0.285744
0.285745
0.285745
0.285745
0.285745
0.285745
0.285745
0.285746
0.285746
0.285746
0.285746
0.285746
0.285746
0.285746
0.285746
0.285746
0.285747
0.285747
0.285747
0.285747
0.285747
0.285747
0.285747
0.285747
0.285747
0.285747
0.285747
0.285747
0.285747
0.285747
0.285747
0.285747
0.285747
0.285747
0.285747
0.285747
0.285747
0.285747
0.285746
0.285746
0.285746
0.285746
0.285746
0.285746
0.285746
0.285746
0.285746
0.285745
0.285745
0.285745
0.285745
0.285745
0.285745
0.285744
0.285744
0.285744
0.285744
0.285744
0.285744
0.285744
0.285743
0.285743
0.285743
0.285743
0.285743
0.285743
0.285743
0.285714
0.285714
0.285714
0.285714
0.285714
0.285714
0.285715
0.285715
0.285715
0.285715
0.285715
0.285715
0.285715
0.285715
0.285715
0.285716
0.285716
0.285716
0.285716
0.285716
0.285716
0.285716
0.285716
0.285717
0.285717
0.285717
0.285717
0.285717
0.285717
0.285717
0.285717
0.285717
0.285717
0.285717
0.285717
0.285717
0.285717
0.285718
0.285718
0.285718
0.285718
0.285718
0.285718
0.285717
0.285717
0.285717
0.285717
0.285717
0.285717
0.285717
0.285717
0.285717
0.285717
0.285717
0.285717
0.285717
0.285717
0.285716
0.285716
0.285716
0.285716
0.285716
0.285716
0.285716
0.285716
0.285715
0.285715
0.285715
0.285715
0.285715
0.285715
0.285715
0.285715
0.285715
0.285714
0.285714
0.285714
0.285714
0.285714
0.285714
0.285685
0.285685
0.285685
0.285685
0.285685
0.285685
0.285686
0.285686
0.285686
0.285686
0.285686
0.285686
0.285686
0.285686
0.285686
0.285686
0.285687
0.285687
0.285687
0.285687
0.285687
0.285687
0.285687
0.285687
0.285687
0.285687
0.285688
0.285688
0.285688
0.285688
0.285688
0.285688
0.285688
0.285688
0.285688
0.285688
0.285688
0.285688
0.285688
0.285688
0.285688
0.285688
0.285688
0.285688
0.285688
0.285688
0.285688
0.285688
0.285688
0.285688
0.285688
0.285688
0.285688
0.285688
0.285687
0.285687
0.285687
0.285687
0.285687
0.285687
0.285687
0.285687
0.285687
0.285687
0.285686
0.285686
0.285686
0.285686
0.285686
0.285686
0.285686
0.285686
0.285686
0.285686
0.285685
0.285685
0.285685
0.285685
0.285685
0.285685
0.285656
0.285656
0.285656
0.285656
0.285656
0.285656
0.285657
0.285657
0.285657
0.285657
0.285657
0.285657
0.285657
0.285657
0.285657
0.285657
0.285657
0.285657
0.285658
0.285658
0.285658
0.285658
0.285658
0.285658
0.285658
0.285658
0.285658
0.285658
0.285658
0.285658
0.285658
0.285659
0.285659
0.285659
0.285659
0.285659
0.285659
0.285659
0.285659
0.285659
0.285659
0.285659
0.285659
0.285659
0.285659
0.285659
0.285659
0.285659
0.285659
0.285658
0.285658
0.285658
0.285658
0.285658
0.285658
0.285658
0.285658
0.285658
0.285658
0.285658
0.285658
0.285658
0.285657
0.285657
0.285657
0.285657
0.285657
0.285657
0.285657
0.285657
0.285657
0.285657
0.285657
0.285657
0.285656
0.285656
0.285656
0.285656
0.285656
0.285656
0.285627
0.285627
0.285627
0.285627
0.285627
0.285627
0.285628
0.285628
0.285628
0.285628
0.285628
0.285628
0.285628
0.285628
0.285628
0.285628
0.285628
0.285628
0.285628
0.285628
0.285628
0.285629
0.285629
0.285629
0.285629
0.285629
0.285629
0.285629
0.285629
0.285629
0.285629
0.285629
0.285629
0.285629
0.285629
0.285629
0.285629
0.285629
0.285629
0.285629
0.285629
0.285629
0.285629
0.285629
0.285629
0.285629
0.285629
0.285629
0.285629
0.285629
0.285629
0.285629
0.285629
0.285629
0.285629
0.285629
0.285629
0.285629
0.285629
0.285628
0.285628
0.285628
0.285628
0.285628
0.285628
0.285628
0.285628
0.285628
0.285628
0.285628
0.285628
0.285628
0.285628
0.285628
0.285627
0.285627
0.285627
0.285627
0.285627
0.285627
0.285598
0.285598
0.285598
0.285598
0.285598
0.285598