/*--------------------------------*- C++ -*----------------------------------*\
  =========                 |
  \\      /  F ield         | OpenFOAM: The Open Source CFD Toolbox
   \\    /   O peration     | Website:  https://openfoam.org
    \\  /    A nd           | Version:  11
     \\/     M anipulation  |
\*---------------------------------------------------------------------------*/
FoamFile
{
    format      ascii;
    class       volScalarField;
    location    "100";
    object      C;
}
// * * * * * * * * * * * * * * * * * * * * * * * * * * * * * * * * * * * * * //

dimensions      [0 0 0 1 0 0 0];

internalField   nonuniform List<scalar> 
427520
(
1.8988e-206
1.99857e-206
2.24047e-206
2.18387e-206
1.95381e-206
1.68961e-206
1.45641e-206
1.26631e-206
1.10933e-206
9.72355e-207
8.46444e-207
7.2777e-207
6.16052e-207
5.12686e-207
4.1936e-207
3.37283e-207
2.66913e-207
2.07988e-207
1.59693e-207
1.20879e-207
9.02397e-208
6.64549e-208
4.82827e-208
3.461e-208
2.44765e-208
1.7077e-208
1.17535e-208
7.97979e-209
5.34407e-209
3.53017e-209
2.30012e-209
1.47816e-209
9.36855e-210
5.85543e-210
3.60832e-210
2.19182e-210
1.31194e-210
7.73451e-211
4.48832e-211
2.56114e-211
1.43501e-211
7.93667e-212
4.33239e-212
2.33166e-212
1.23715e-212
6.47796e-213
3.3525e-213
1.7172e-213
8.71424e-214
4.38358e-214
2.18628e-214
1.08105e-214
5.29907e-215
2.57466e-215
1.23987e-215
5.91787e-216
2.79965e-216
1.31288e-216
6.10333e-217
2.81292e-217
1.28534e-217
5.82302e-218
2.61543e-218
1.16461e-218
5.14116e-219
2.25033e-219
9.77281e-220
4.21974e-220
1.82244e-220
8.00196e-221
3.71853e-221
1.98e-221
1.32615e-221
1.13428e-221
1.13823e-221
1.21709e-221
1.30146e-221
1.33365e-221
1.25743e-221
1.00527e-221
-5.36316e-207
-4.73601e-207
-1.92097e-208
-8.20741e-208
-2.87719e-207
-3.76765e-207
-2.88802e-207
-7.19526e-208
1.95042e-207
4.45208e-207
6.37959e-207
7.58013e-207
8.08003e-207
8.00375e-207
7.51085e-207
6.75633e-207
5.87064e-207
4.95285e-207
4.07162e-207
3.26966e-207
2.56937e-207
1.97827e-207
1.49379e-207
1.10698e-207
8.05535e-208
5.75874e-208
4.04621e-208
2.79516e-208
1.89912e-208
1.26946e-208
8.35071e-209
5.40711e-209
3.44679e-209
2.16328e-209
1.33678e-209
8.13238e-210
4.86959e-210
2.86899e-210
1.66214e-210
9.45846e-211
5.27329e-211
2.9065e-211
1.58218e-211
8.49352e-212
4.49464e-212
2.34649e-212
1.21021e-212
6.17491e-213
3.12032e-213
1.5626e-213
7.75697e-214
3.81712e-214
1.86178e-214
8.99932e-215
4.31056e-215
2.0459e-215
9.62213e-216
4.48462e-216
2.07152e-216
9.48424e-217
4.30428e-217
1.93645e-217
8.63633e-218
3.81833e-218
1.6736e-218
7.27293e-219
3.1347e-219
1.34112e-219
5.70529e-220
2.42088e-220
1.02877e-220
4.38121e-221
1.836e-221
6.98269e-222
1.7268e-222
-4.32949e-223
-5.2937e-223
9.87514e-223
3.45619e-222
7.08806e-222
9.7247e-208
3.91055e-207
5.49081e-207
-2.53107e-207
-1.12531e-206
-1.54241e-206
-1.43149e-206
-9.37205e-207
-2.59222e-207
4.29723e-207
1.01414e-206
1.43678e-206
1.68602e-206
1.77948e-206
1.74934e-206
1.63173e-206
1.46023e-206
1.26259e-206
1.05983e-206
8.66489e-207
6.9158e-207
5.39753e-207
4.1243e-207
3.08823e-207
2.26771e-207
1.63395e-207
1.15579e-207
8.02954e-208
5.48074e-208
3.67674e-208
2.42484e-208
1.57252e-208
1.00292e-208
6.29123e-209
3.88147e-209
2.35509e-209
1.40498e-209
8.23818e-210
4.74474e-210
2.68069e-210
1.48036e-210
8.09125e-211
4.37045e-211
2.32904e-211
1.22387e-211
6.34525e-212
3.24967e-212
1.64613e-212
8.25627e-213
4.10301e-213
2.02102e-213
9.86799e-214
4.77584e-214
2.29079e-214
1.08892e-214
5.12928e-215
2.39428e-215
1.10759e-215
5.07816e-216
2.30789e-216
1.03982e-216
4.64508e-217
2.0577e-217
9.04052e-218
3.94036e-218
1.70442e-218
7.32166e-219
3.12695e-219
1.32985e-219
5.63925e-220
2.37725e-220
9.75676e-221
3.58402e-221
7.75544e-222
-4.56862e-222
-7.66952e-222
-3.78124e-222
5.51257e-222
1.72823e-221
2.96542e-221
7.50941e-206
6.94317e-206
4.81283e-206
1.5354e-206
-1.18565e-206
-2.57498e-206
-2.68234e-206
-1.89536e-206
-6.49104e-207
6.97587e-207
1.89909e-206
2.81979e-206
3.41261e-206
3.69172e-206
3.70693e-206
3.52311e-206
3.20611e-206
2.81435e-206
2.39486e-206
1.98235e-206
1.60008e-206
1.26165e-206
9.73046e-207
7.34786e-207
5.43692e-207
3.94434e-207
2.80698e-207
1.96033e-207
1.34399e-207
9.04827e-208
5.98329e-208
3.88686e-208
2.48079e-208
1.55572e-208
9.58523e-209
5.80158e-209
3.44867e-209
2.01255e-209
1.15223e-209
6.46209e-210
3.53409e-210
1.91456e-210
1.02544e-210
5.42025e-211
2.82558e-211
1.45334e-211
7.38352e-212
3.70958e-212
1.84505e-212
9.09156e-213
4.44018e-213
2.14964e-213
1.03167e-213
4.90788e-214
2.3142e-214
1.08155e-214
5.01017e-215
2.30066e-215
1.04741e-215
4.72848e-216
2.11726e-216
9.40571e-217
4.14686e-217
1.81528e-217
7.89439e-218
3.41368e-218
1.46975e-218
6.31392e-219
2.71523e-219
1.1739e-219
5.1202e-220
2.24473e-220
9.65769e-221
3.85928e-221
1.44651e-221
1.08871e-221
2.31073e-221
4.73879e-221
7.7696e-221
1.0732e-220
2.73507e-205
2.44233e-205
1.65216e-205
7.33241e-206
3.56321e-207
-3.31688e-206
-4.1335e-206
-3.03821e-206
-9.46151e-207
1.43449e-206
3.62828e-206
5.36447e-206
6.53221e-206
7.13316e-206
7.23877e-206
6.95533e-206
6.39839e-206
5.67586e-206
4.87876e-206
4.07736e-206
3.32123e-206
2.64143e-206
2.05386e-206
1.56286e-206
1.1647e-206
8.50554e-207
6.08961e-207
4.27596e-207
2.94553e-207
1.99104e-207
1.32087e-207
8.60116e-208
5.49783e-208
3.44949e-208
2.12426e-208
1.28371e-208
7.61027e-209
4.42402e-209
2.51998e-209
1.40416e-209
7.61266e-210
4.09029e-210
2.17327e-210
1.13971e-210
5.89481e-211
3.00815e-211
1.51604e-211
7.55486e-212
3.72658e-212
1.82101e-212
8.81971e-213
4.23492e-213
2.01615e-213
9.5167e-214
4.45384e-214
2.06671e-214
9.50949e-215
4.33952e-215
1.96442e-215
8.82408e-216
3.93475e-216
1.74254e-216
7.66876e-217
3.35639e-217
1.4624e-217
6.3523e-218
2.75671e-218
1.19915e-218
5.25533e-219
2.33807e-219
1.06644e-219
5.03832e-220
2.49057e-220
1.32734e-220
8.61278e-221
8.3602e-221
1.15398e-220
1.72757e-220
2.4137e-220
2.9999e-220
6.49093e-205
5.79746e-205
3.94316e-205
1.88919e-205
3.6283e-206
-4.54582e-206
-6.84609e-206
-5.30781e-206
-1.76897e-206
2.40936e-206
6.33651e-206
9.50619e-206
1.16994e-205
1.2897e-205
1.32053e-205
1.2798e-205
1.18718e-205
1.06167e-205
9.19735e-206
7.74497e-206
6.35509e-206
5.09029e-206
3.98522e-206
3.05262e-206
2.2894e-206
1.68203e-206
1.21112e-206
8.54901e-207
5.91728e-207
4.01676e-207
2.67437e-207
1.74654e-207
1.11876e-207
7.0285e-208
4.32993e-208
2.61508e-208
1.54782e-208
8.97358e-209
5.09188e-209
2.82271e-209
1.51942e-209
8.10713e-210
4.27765e-210
2.22767e-210
1.14412e-210
5.79691e-211
2.90033e-211
1.43463e-211
7.02358e-212
3.40634e-212
1.63752e-212
7.80566e-213
3.69004e-213
1.73018e-213
8.04673e-214
3.71245e-214
1.69938e-214
7.72009e-215
3.48188e-215
1.55979e-215
6.94434e-216
3.07482e-216
1.35524e-216
5.95261e-217
2.60934e-217
1.14381e-217
5.02819e-218
2.22596e-218
9.98596e-219
4.58101e-219
2.17503e-219
1.08434e-219
5.78666e-220
3.44961e-220
2.53744e-220
2.54921e-220
3.27162e-220
4.4995e-220
5.89991e-220
6.96272e-220
1.25925e-204
1.13098e-204
7.73597e-205
3.75392e-205
7.82006e-206
-8.27732e-206
-1.31552e-205
-1.0752e-205
-4.5605e-206
2.88572e-206
9.95552e-206
1.57301e-205
1.98072e-205
2.21374e-205
2.28928e-205
2.2365e-205
2.08908e-205
1.87996e-205
1.63819e-205
1.38722e-205
1.14443e-205
9.21508e-206
7.25209e-206
5.58353e-206
4.2087e-206
3.10747e-206
2.24825e-206
1.5943e-206
1.1083e-206
7.55334e-207
5.04697e-207
3.3061e-207
2.123e-207
1.33617e-207
8.24046e-208
4.97824e-208
2.94478e-208
1.70466e-208
9.64848e-209
5.32927e-209
2.85338e-209
1.51426e-209
7.94572e-210
4.1145e-210
2.10098e-210
1.05822e-210
5.26249e-211
2.58701e-211
1.25865e-211
6.06635e-212
2.89851e-212
1.37356e-212
6.45751e-213
3.0124e-213
1.39463e-213
6.40906e-214
2.92441e-214
1.32544e-214
5.97001e-215
2.67402e-215
1.19198e-215
5.29312e-216
2.34428e-216
1.03707e-216
4.59124e-217
2.03921e-217
9.11766e-218
4.12356e-218
1.89918e-218
8.99081e-219
4.42679e-219
2.29899e-219
1.28443e-219
8.04665e-220
6.14059e-220
6.12673e-220
7.53433e-220
9.90556e-220
1.25284e-219
1.4369e-219
2.17001e-204
1.95894e-204
1.33932e-204
6.35127e-205
1.03253e-205
-1.86601e-205
-2.74737e-205
-2.3159e-205
-1.20131e-205
1.40375e-206
1.41768e-205
2.46749e-205
3.21887e-205
3.66301e-205
3.82971e-205
3.76954e-205
3.54086e-205
3.20088e-205
2.8001e-205
2.37948e-205
1.96958e-205
1.59112e-205
1.25629e-205
9.70472e-206
7.34009e-206
5.43837e-206
3.94851e-206
2.80988e-206
1.96008e-206
1.34031e-206
8.98371e-207
5.90168e-207
3.79916e-207
2.39599e-207
1.47989e-207
8.94853e-208
5.29465e-208
3.06348e-208
1.73175e-208
9.54461e-209
5.09259e-209
2.69258e-209
1.40728e-209
7.2571e-210
3.68981e-210
1.85027e-210
9.15965e-211
4.48202e-211
2.17049e-211
1.04133e-211
4.95354e-212
2.33774e-212
1.09496e-212
5.09161e-213
2.35118e-213
1.07851e-213
4.91639e-214
2.2283e-214
1.00484e-214
4.51198e-215
2.01941e-215
9.01984e-216
4.02654e-216
1.79976e-216
8.07299e-217
3.64462e-217
1.66237e-217
7.69992e-218
3.64673e-218
1.78166e-218
9.07545e-219
4.87908e-219
2.81663e-219
1.80944e-219
1.38501e-219
1.34087e-219
1.57513e-219
1.99162e-219
2.44985e-219
2.7588e-219
3.45531e-204
3.12964e-204
2.12021e-204
9.48247e-205
5.26641e-206
-4.34933e-205
-5.76287e-205
-4.90692e-205
-2.87106e-205
-4.50115e-206
1.84752e-205
3.73862e-205
5.10205e-205
5.92519e-205
6.26235e-205
6.20314e-205
5.84982e-205
5.30182e-205
4.6464e-205
3.95394e-205
3.27679e-205
2.65027e-205
2.09519e-205
1.62079e-205
1.22783e-205
9.11361e-206
6.6302e-206
4.72854e-206
3.30612e-206
2.26614e-206
1.52257e-206
1.00256e-206
6.46807e-207
4.08722e-207
2.52872e-207
1.53106e-207
9.0668e-208
5.24798e-208
2.96611e-208
1.63348e-208
8.70066e-209
4.59081e-209
2.39374e-209
1.23126e-209
6.24335e-210
3.122e-210
1.54108e-210
7.51885e-211
3.63058e-211
1.73699e-211
8.24167e-212
3.88089e-212
1.81457e-212
8.42794e-213
3.88997e-213
1.78498e-213
8.14727e-214
3.70138e-214
1.67511e-214
7.5593e-215
3.40567e-215
1.53404e-215
6.92045e-216
3.13335e-216
1.42751e-216
6.56493e-217
3.06009e-217
1.45333e-217
7.07971e-218
3.56639e-218
1.87509e-218
1.03946e-218
6.16119e-219
4.01733e-219
3.04277e-219
2.82417e-219
3.14556e-219
3.81403e-219
4.56793e-219
5.0721e-219
5.19161e-204
4.70811e-204
3.12524e-204
1.25207e-204
-1.90803e-205
-9.68353e-205
-1.17106e-204
-9.94311e-205
-6.21144e-205
-1.86603e-205
2.22601e-205
5.58413e-205
8.00774e-205
9.48427e-205
1.01157e-204
1.00631e-204
9.5067e-205
8.61932e-205
7.55072e-205
6.42031e-205
5.31575e-205
4.29544e-205
3.39317e-205
2.62346e-205
1.98691e-205
1.47488e-205
1.07341e-205
7.66088e-206
5.3618e-206
3.67983e-206
2.47603e-206
1.633e-206
1.0553e-206
6.67969e-207
4.1393e-207
2.50989e-207
1.48821e-207
8.62266e-208
4.8769e-208
2.68676e-208
1.43093e-208
7.54625e-209
3.93149e-209
2.02015e-209
1.02321e-209
5.11054e-210
2.51962e-210
1.22785e-210
5.92233e-211
2.83078e-211
1.34225e-211
6.31869e-212
2.95504e-212
1.37365e-212
6.35022e-213
2.92103e-213
1.33783e-213
6.10549e-214
2.77914e-214
1.2632e-214
5.74118e-215
2.61344e-215
1.19385e-215
5.48546e-216
2.54222e-216
1.19239e-216
5.68379e-217
2.76771e-217
1.3855e-217
7.18274e-218
3.88702e-218
2.21395e-218
1.34166e-218
8.83742e-219
6.59735e-219
5.8524e-219
6.15278e-219
7.12257e-219
8.29211e-219
9.09035e-219
7.44639e-204
6.74573e-204
4.32119e-204
1.4057e-204
-8.46549e-205
-2.03414e-204
-2.28825e-204
-1.92337e-204
-1.24136e-204
-4.67613e-205
2.52658e-205
8.3955e-205
1.26102e-204
1.51719e-204
1.62758e-204
1.62137e-204
1.53041e-204
1.38469e-204
1.20972e-204
1.02552e-204
8.46473e-205
6.81968e-205
5.37237e-205
4.14355e-205
3.13166e-205
2.32079e-205
1.68699e-205
1.20305e-205
8.41712e-206
5.77701e-206
3.88877e-206
2.56662e-206
1.6603e-206
1.05218e-206
6.52895e-207
3.96451e-207
2.35414e-207
1.36593e-207
7.73632e-208
4.26769e-208
2.27575e-208
1.20115e-208
6.2612e-209
3.2185e-209
1.63073e-209
8.14771e-210
4.0186e-210
1.95926e-210
9.45593e-211
4.52353e-211
2.14733e-211
1.01244e-211
4.7447e-212
2.2116e-212
1.02596e-212
4.73989e-213
2.18245e-213
1.00243e-213
4.59794e-214
2.10877e-214
9.6853e-215
4.46261e-215
2.06712e-215
9.64962e-216
4.55283e-216
2.1786e-216
1.0617e-216
5.29559e-217
2.71935e-217
1.4471e-217
8.03418e-218
4.68444e-218
2.89158e-218
1.91894e-218
1.41238e-218
1.20066e-218
1.19153e-218
1.31299e-218
1.48254e-218
1.6045e-218
1.02559e-203
9.25621e-204
5.5933e-204
1.13051e-204
-2.30882e-204
-4.05944e-204
-4.3136e-204
-3.57467e-204
-2.33594e-204
-9.69602e-205
2.84062e-205
1.29448e-204
2.01236e-204
2.44298e-204
2.62407e-204
2.6087e-204
2.45321e-204
2.20941e-204
1.92053e-204
1.61966e-204
1.33003e-204
1.06625e-204
8.36069e-205
6.42089e-205
4.83435e-205
3.5707e-205
2.58829e-205
1.84163e-205
1.28627e-205
8.81767e-206
5.93152e-206
3.91401e-206
2.53245e-206
1.60585e-206
9.97397e-207
6.06382e-207
3.60599e-207
2.09578e-207
1.1892e-207
6.57361e-208
3.51364e-208
1.85816e-208
9.7027e-209
4.99571e-209
2.53537e-209
1.26895e-209
6.27025e-210
3.06313e-210
1.48158e-210
7.10493e-211
3.38213e-211
1.59977e-211
7.52544e-212
3.52324e-212
1.64287e-212
7.63557e-213
3.54023e-213
1.6391e-213
7.58714e-214
3.516e-214
1.63389e-214
7.6282e-215
3.58586e-215
1.70152e-215
8.17387e-216
3.98896e-216
1.98556e-216
1.01284e-216
5.32316e-217
2.89922e-217
1.6457e-217
9.7865e-218
6.132e-218
4.09167e-218
2.97411e-218
2.43563e-218
2.29e-218
2.40075e-218
2.62452e-218
2.80259e-218
1.35827e-203
1.21708e-203
6.67696e-204
-8.98645e-206
-5.26708e-204
-7.77168e-204
-7.89129e-204
-6.43265e-204
-4.20009e-204
-1.8058e-204
3.55278e-205
2.07255e-204
3.2731e-204
3.97635e-204
4.25531e-204
4.20672e-204
3.93006e-204
3.51462e-204
3.03304e-204
2.53945e-204
2.07064e-204
1.64875e-204
1.28453e-204
9.80623e-205
7.34295e-205
5.397e-205
3.89527e-205
2.76136e-205
1.92275e-205
1.31489e-205
8.82906e-206
5.819e-206
3.76266e-206
2.38574e-206
1.48241e-206
9.02058e-207
5.37141e-207
3.12723e-207
1.77826e-207
9.85503e-208
5.28447e-208
2.80269e-208
1.46743e-208
7.57576e-209
3.85544e-209
1.93529e-209
9.59252e-210
4.70168e-210
2.28223e-210
1.09867e-210
5.25209e-211
2.4959e-211
1.18022e-211
5.5578e-212
2.60858e-212
1.22133e-212
5.70945e-213
2.66783e-213
1.24759e-213
5.84744e-214
2.75156e-214
1.30243e-214
6.21526e-215
2.99779e-215
1.46571e-215
7.28874e-216
3.70074e-216
1.92693e-216
1.03395e-216
5.74644e-217
3.32386e-217
2.00897e-217
1.27373e-217
8.53093e-218
6.13399e-218
4.86673e-218
4.35924e-218
4.35494e-218
4.60588e-218
4.85009e-218
1.72339e-203
1.52546e-203
7.0377e-204
-3.17868e-204
-1.09062e-203
-1.4397e-203
-1.40902e-203
-1.12846e-203
-7.29445e-204
-3.12724e-204
5.689e-205
3.45696e-204
5.4339e-204
6.55256e-204
6.95369e-204
6.81351e-204
6.30749e-204
5.58886e-204
4.77886e-204
3.96508e-204
3.20474e-204
2.53026e-204
1.95553e-204
1.48164e-204
1.10173e-204
8.04606e-205
5.77399e-205
4.07252e-205
2.82338e-205
1.92377e-205
1.28798e-205
8.47002e-206
5.46859e-206
3.46452e-206
2.15234e-206
1.31031e-206
7.81063e-207
4.55482e-207
2.59583e-207
1.44275e-207
7.76581e-208
4.13336e-208
2.17165e-208
1.1251e-208
5.74704e-209
2.89612e-209
1.44149e-209
7.09668e-210
3.46107e-210
1.6746e-210
8.04888e-211
3.84753e-211
1.83102e-211
8.683e-212
4.10673e-212
1.93896e-212
9.14798e-213
4.31777e-213
2.04145e-213
9.68322e-214
4.61584e-214
2.21558e-214
1.07324e-214
5.25993e-215
2.61557e-215
1.3239e-215
6.84585e-216
3.63116e-216
1.98437e-216
1.12225e-216
6.59454e-217
4.03855e-217
2.58379e-217
1.73432e-217
1.23512e-217
9.54078e-218
8.18993e-218
7.82003e-218
8.00283e-218
8.30703e-218
2.07081e-203
1.79509e-203
5.65988e-204
-9.75421e-204
-2.1242e-203
-2.5989e-203
-2.46763e-203
-1.94058e-203
-1.23338e-203
-5.12394e-204
1.15822e-204
5.97533e-204
9.18938e-204
1.09261e-203
1.14546e-203
1.10951e-203
1.01563e-203
8.90034e-204
7.52829e-204
6.18044e-204
4.94412e-204
3.86506e-204
2.95899e-204
2.22196e-204
1.63843e-204
1.18733e-204
8.46054e-205
5.92966e-205
4.08798e-205
2.77206e-205
1.84848e-205
1.21169e-205
7.80425e-206
4.9362e-206
3.06405e-206
1.86521e-206
1.11259e-206
6.49737e-207
3.71101e-207
2.06879e-207
1.11821e-207
5.97567e-208
3.15225e-208
1.63997e-208
8.41405e-209
4.2601e-209
2.13104e-209
1.05476e-209
5.17329e-210
2.51814e-210
1.2181e-210
5.86276e-211
2.81061e-211
1.34339e-211
6.40795e-212
3.05332e-212
1.45486e-212
6.94022e-213
3.31905e-213
1.5937e-213
7.69668e-214
3.74592e-214
1.84131e-214
9.1638e-215
4.63016e-215
2.38242e-215
1.25262e-215
6.75498e-216
3.75099e-216
2.15317e-216
1.28192e-216
7.9334e-217
5.10984e-217
3.43272e-217
2.42329e-217
1.8295e-217
1.51315e-217
1.38576e-217
1.37338e-217
1.40506e-217
2.29108e-203
1.90952e-203
6.74102e-205
-2.26229e-203
-3.96855e-203
-4.59762e-203
-4.25607e-203
-3.2858e-203
-2.04216e-203
-8.01147e-204
2.6142e-204
1.05981e-203
1.5769e-203
1.84028e-203
1.90092e-203
1.81677e-203
1.64197e-203
1.4212e-203
1.18765e-203
9.63555e-204
7.61992e-204
5.89096e-204
4.46205e-204
3.31671e-204
2.42232e-204
1.73973e-204
1.22946e-204
8.55207e-205
5.85622e-205
3.94761e-205
2.61901e-205
1.70955e-205
1.09742e-205
6.92423e-206
4.29138e-206
2.61056e-206
1.55751e-206
9.10554e-207
5.21106e-207
2.91368e-207
1.58172e-207
8.48896e-208
4.49775e-208
2.35081e-208
1.21209e-208
6.16947e-209
3.10369e-209
1.54545e-209
7.62858e-210
3.73846e-210
1.82139e-210
8.83305e-211
4.26874e-211
2.05785e-211
9.90561e-212
4.76586e-212
2.29438e-212
1.10656e-212
5.35379e-213
2.60246e-213
1.27319e-213
6.28098e-214
3.13125e-214
1.58123e-214
8.1096e-215
4.23629e-215
2.26114e-215
1.2374e-215
6.96754e-216
4.0505e-216
2.43775e-216
1.52118e-216
9.84481e-217
6.61135e-217
4.62841e-217
3.42487e-217
2.74134e-217
2.41607e-217
2.32153e-217
2.34091e-217
2.16347e-203
1.63976e-203
-1.1296e-203
-4.66242e-203
-7.19987e-203
-8.00789e-203
-7.25427e-203
-5.49746e-203
-3.32568e-203
-1.19882e-203
5.91672e-204
1.90877e-203
2.73372e-203
3.1239e-203
3.17472e-203
2.99053e-203
2.66608e-203
2.27722e-203
1.87847e-203
1.50479e-203
1.17533e-203
8.97744e-204
6.72101e-204
4.94023e-204
3.56982e-204
2.53826e-204
1.77705e-204
1.22549e-204
8.32631e-205
5.57353e-205
3.67516e-205
2.38649e-205
1.52546e-205
9.59325e-206
5.93173e-206
3.60358e-206
2.1492e-206
1.25728e-206
7.20737e-207
4.04112e-207
2.2032e-207
1.18761e-207
6.32119e-208
3.32005e-208
1.72089e-208
8.80932e-209
4.45891e-209
2.23479e-209
1.11077e-209
5.48332e-210
2.6921e-210
1.31618e-210
6.41512e-211
3.12048e-211
1.51637e-211
7.36893e-212
3.58508e-212
1.74829e-212
8.55728e-213
4.21041e-213
2.086e-213
1.04261e-213
5.26802e-214
2.69699e-214
1.40249e-214
7.4283e-215
4.01903e-215
2.2282e-215
1.26992e-215
7.46233e-216
4.53124e-216
2.84584e-216
1.8477e-216
1.23918e-216
8.60458e-217
6.25292e-217
4.86e-217
4.13402e-217
3.85554e-217
3.83215e-217
1.26255e-203
5.51683e-204
-3.62751e-203
-9.00785e-203
-1.27911e-202
-1.37849e-202
-1.22544e-202
-9.11531e-203
-5.34499e-203
-1.71278e-203
1.29601e-203
3.46173e-203
4.76901e-203
5.33266e-203
5.32933e-203
4.94595e-203
4.3477e-203
3.6631e-203
2.98132e-203
2.35683e-203
1.81701e-203
1.3703e-203
1.01323e-203
7.35883e-204
5.25664e-204
3.69695e-204
2.56169e-204
1.74971e-204
1.17835e-204
7.8249e-205
5.12316e-205
3.30632e-205
2.10249e-205
1.3167e-205
8.11601e-206
4.92034e-206
2.9316e-206
1.71515e-206
9.84424e-207
5.53313e-207
3.02896e-207
1.6397e-207
8.76753e-208
4.62793e-208
2.4119e-208
1.242e-208
6.32674e-209
3.19265e-209
1.5984e-209
7.95096e-210
3.93508e-210
1.94014e-210
9.54011e-211
4.6836e-211
2.29806e-211
1.12811e-211
5.54662e-212
2.73477e-212
1.35396e-212
6.74116e-213
3.38079e-213
1.71099e-213
8.75574e-214
4.54037e-214
2.39149e-214
1.28271e-214
7.02508e-215
3.93988e-215
2.26918e-215
1.34564e-215
8.23082e-216
5.19507e-216
3.37952e-216
2.26158e-216
1.55761e-216
1.11305e-216
8.42087e-217
6.92846e-217
6.2773e-217
6.1504e-217
-1.20779e-203
-2.15793e-203
-8.49197e-203
-1.67267e-202
-2.23867e-202
-2.35266e-202
-2.05673e-202
-1.50158e-202
-8.50139e-203
-2.31534e-203
2.73126e-203
6.28486e-203
8.34576e-203
9.13688e-203
8.98187e-203
8.21382e-203
7.11976e-203
5.91691e-203
4.75073e-203
3.70537e-203
2.81883e-203
2.09803e-203
1.53144e-203
1.09834e-203
7.75083e-204
5.38777e-204
3.69206e-204
2.49556e-204
1.66439e-204
1.09544e-204
7.11476e-205
4.55917e-205
2.88155e-205
1.79549e-205
1.10234e-205
6.6639e-206
3.96366e-206
2.31773e-206
1.33117e-206
7.49697e-207
4.11922e-207
2.23885e-207
1.20242e-207
6.37821e-208
3.34221e-208
1.73137e-208
8.87696e-209
4.51085e-209
2.27512e-209
1.14059e-209
5.69141e-210
2.83021e-210
1.40418e-210
6.95815e-211
3.44733e-211
1.70941e-211
8.49295e-212
4.23293e-212
2.11916e-212
1.06722e-212
5.41514e-213
2.77325e-213
1.43621e-213
7.53698e-214
4.01686e-214
2.17932e-214
1.20669e-214
6.83678e-215
3.97381e-215
2.37485e-215
1.46133e-215
9.25816e-216
6.02811e-216
4.02235e-216
2.74738e-216
1.93204e-216
1.42505e-216
1.13575e-216
1.00009e-216
9.65868e-217
-6.70619e-203
-7.94878e-203
-1.75949e-202
-3.02668e-202
-3.87683e-202
-3.99116e-202
-3.43681e-202
-2.46274e-202
-1.3413e-202
-2.89832e-203
5.55708e-203
1.1382e-202
1.46184e-202
1.56896e-202
1.51831e-202
1.36893e-202
1.17055e-202
9.59809e-203
7.6038e-203
5.85169e-203
4.39245e-203
3.22605e-203
2.32403e-203
1.64535e-203
1.14654e-203
7.87298e-204
5.33215e-204
3.56416e-204
2.35228e-204
1.5332e-204
9.86986e-205
6.27444e-205
3.93805e-205
2.43927e-205
1.49036e-205
8.97654e-206
5.32597e-206
3.11042e-206
1.78649e-206
1.00753e-206
5.55349e-207
3.02929e-207
1.63364e-207
8.70626e-208
4.58628e-208
2.38982e-208
1.23319e-208
6.31005e-209
3.20619e-209
1.61996e-209
8.14995e-210
4.08762e-210
2.04617e-210
1.02336e-210
5.11893e-211
2.56354e-211
1.28673e-211
6.48076e-212
3.27956e-212
1.6698e-212
8.56728e-213
4.4369e-213
2.32361e-213
1.23294e-213
6.64242e-214
3.6415e-214
2.0362e-214
1.16411e-214
6.82038e-215
4.10306e-215
2.53715e-215
1.61184e-215
1.04955e-215
6.97868e-216
4.72606e-216
3.27175e-216
2.35474e-216
1.8191e-216
1.55669e-216
1.48154e-216
-1.78635e-202
-1.94381e-202
-3.4206e-202
-5.38206e-202
-6.66464e-202
-6.74391e-202
-5.7277e-202
-4.02873e-202
-2.10354e-202
-3.18651e-203
1.09742e-202
2.05212e-202
2.55902e-202
2.69712e-202
2.57221e-202
2.28839e-202
1.9316e-202
1.56355e-202
1.2227e-202
9.28722e-203
6.87996e-203
4.98666e-203
3.54531e-203
2.47741e-203
1.70427e-203
1.15566e-203
7.73225e-204
5.10839e-204
3.33421e-204
2.15068e-204
1.37119e-204
8.64066e-205
5.38087e-205
3.31039e-205
2.01112e-205
1.20583e-205
7.13077e-206
4.15593e-206
2.38525e-206
1.34616e-206
7.43871e-207
4.07002e-207
2.20292e-207
1.17909e-207
6.24217e-208
3.27098e-208
1.6984e-208
8.74934e-209
4.4779e-209
2.27992e-209
1.1563e-209
5.8484e-210
2.95328e-210
1.49047e-210
7.52542e-211
3.80514e-211
1.92888e-211
9.81367e-212
5.0175e-212
2.58145e-212
1.33845e-212
7.00486e-213
3.70686e-213
1.98713e-213
1.08121e-213
5.98368e-214
3.37553e-214
1.94532e-214
1.1477e-214
6.94347e-215
4.31075e-215
2.74396e-215
1.78558e-215
1.18243e-215
7.93663e-216
5.40867e-216
3.79912e-216
2.84452e-216
2.36386e-216
2.21577e-216
-3.93659e-202
-4.12676e-202
-6.40098e-202
-9.45607e-202
-1.14005e-201
-1.13682e-201
-9.53364e-202
-6.58358e-202
-3.28516e-202
-2.57617e-203
2.11429e-202
3.68008e-202
4.47288e-202
4.63797e-202
4.36452e-202
3.83528e-202
3.19835e-202
2.55761e-202
1.97549e-202
1.48176e-202
1.08375e-202
7.75436e-203
5.4419e-203
3.75367e-203
2.54917e-203
1.70676e-203
1.12785e-203
7.36203e-204
4.7499e-204
3.03041e-204
1.91229e-204
1.19366e-204
7.36972e-205
4.49955e-205
2.71571e-205
1.61953e-205
9.53728e-206
5.54241e-206
3.17607e-206
1.79231e-206
9.92135e-207
5.44126e-207
2.95417e-207
1.5872e-207
8.44084e-208
4.44626e-208
2.32221e-208
1.20401e-208
6.205e-209
3.1827e-209
1.62676e-209
8.29517e-210
4.2244e-210
2.1507e-210
1.09572e-210
5.59188e-211
2.86155e-211
1.46998e-211
7.58949e-212
3.94337e-212
2.06487e-212
1.09132e-212
5.83124e-213
3.15554e-213
1.7326e-213
9.67119e-214
5.49918e-214
3.19181e-214
1.89461e-214
1.15177e-214
7.17393e-215
4.57236e-215
2.97169e-215
1.95882e-215
1.30256e-215
8.73508e-216
5.98549e-216
4.33933e-216
3.49652e-216
3.22496e-216
-7.94792e-202
-8.15977e-202
-1.16847e-201
-1.64748e-201
-1.94385e-201
-1.91407e-201
-1.58658e-201
-1.07608e-201
-5.11762e-202
1.60291e-204
3.99123e-202
6.56264e-202
7.80223e-202
7.97405e-202
7.41408e-202
6.44199e-202
5.31251e-202
4.20036e-202
3.20691e-202
2.37693e-202
1.71742e-202
1.21366e-202
8.41066e-203
5.72826e-203
3.84101e-203
2.5394e-203
1.65727e-203
1.06865e-203
6.81369e-204
4.29797e-204
2.68309e-204
1.658e-204
1.0142e-204
6.14057e-205
3.67901e-205
2.18034e-205
1.27751e-205
7.39602e-206
4.22797e-206
2.3836e-206
1.32058e-206
7.25409e-207
3.94769e-207
2.1277e-207
1.136e-207
6.01205e-208
3.1569e-208
1.64659e-208
8.54135e-209
4.41176e-209
2.27169e-209
1.16738e-209
5.99308e-210
3.07671e-210
1.581e-210
8.13971e-211
4.20292e-211
2.17882e-211
1.13533e-211
5.95384e-212
3.14653e-212
1.67826e-212
9.04801e-213
4.93893e-213
2.73436e-213
1.53821e-213
8.80907e-214
5.14542e-214
3.07064e-214
1.87445e-214
1.1706e-214
7.46637e-215
4.84406e-215
3.17667e-215
2.09155e-215
1.37927e-215
9.20997e-216
6.45284e-216
5.02875e-216
4.55722e-216
-1.52668e-201
-1.54675e-201
-2.09694e-201
-2.85323e-201
-3.30768e-201
-3.22168e-201
-2.64204e-201
-1.76093e-201
-7.96397e-202
7.40697e-203
7.40886e-202
1.16394e-201
1.35787e-201
1.37026e-201
1.26042e-201
1.08407e-201
8.84951e-202
6.9244e-202
5.23009e-202
3.83361e-202
2.73832e-202
1.91243e-202
1.30946e-202
8.80992e-203
5.83491e-203
3.81017e-203
2.45615e-203
1.56464e-203
9.85785e-204
6.14668e-204
3.79483e-204
2.32045e-204
1.40555e-204
8.43374e-205
5.01225e-205
2.94962e-205
1.71809e-205
9.90033e-206
5.64063e-206
3.17396e-206
1.75831e-206
9.66527e-207
5.26796e-207
2.84612e-207
1.52449e-207
8.10068e-208
4.27389e-208
2.24126e-208
1.16956e-208
6.08011e-209
3.15235e-209
1.63171e-209
8.44042e-210
4.36718e-210
2.26231e-210
1.17441e-210
6.11538e-211
3.19747e-211
1.68054e-211
8.88937e-212
4.7384e-212
2.54877e-212
1.38551e-212
7.62331e-213
4.25254e-213
2.40918e-213
1.38858e-213
8.15674e-214
4.89068e-214
2.99613e-214
1.87506e-214
1.19626e-214
7.7439e-215
5.04965e-215
3.28965e-215
2.13102e-215
1.38423e-215
9.34447e-216
7.01585e-216
6.23337e-216
-2.8408e-201
-2.85222e-201
-3.71749e-201
-4.92021e-201
-5.62171e-201
-5.42404e-201
-4.40485e-201
-2.88719e-201
-1.23972e-201
2.36532e-202
1.35631e-201
2.05385e-201
2.35778e-201
2.35304e-201
2.14394e-201
1.82726e-201
1.478e-201
1.14557e-201
8.56774e-202
6.21592e-202
4.39287e-202
3.03429e-202
2.05414e-202
1.36605e-202
8.94128e-203
5.76934e-203
3.67479e-203
2.31316e-203
1.44028e-203
8.87725e-204
5.41943e-204
3.27834e-204
1.96561e-204
1.16827e-204
6.88306e-205
4.01928e-205
2.32551e-205
1.33266e-205
7.56038e-206
4.24206e-206
2.34742e-206
1.29002e-206
7.03553e-207
3.80693e-207
2.0441e-207
1.08971e-207
5.77245e-208
3.04138e-208
1.59552e-208
8.34283e-209
4.35264e-209
2.26801e-209
1.18138e-209
6.15705e-210
3.21345e-210
1.68102e-210
8.82215e-211
4.64946e-211
2.46329e-211
1.31343e-211
7.05678e-212
3.82549e-212
2.09533e-212
1.16129e-212
6.52275e-213
3.71895e-213
2.15591e-213
1.27281e-213
7.66341e-214
4.70916e-214
2.95208e-214
1.8831e-214
1.21577e-214
7.87862e-215
5.07408e-215
3.22429e-215
2.03214e-215
1.31591e-215
9.46425e-216
8.21725e-216
-5.17207e-201
-5.15947e-201
-6.53109e-201
-8.45784e-201
-9.54864e-201
-9.13781e-201
-7.35516e-201
-4.74533e-201
-1.93268e-201
5.71758e-202
2.45449e-201
3.6074e-201
4.08486e-201
4.03759e-201
3.64817e-201
3.08429e-201
2.47434e-201
1.9015e-201
1.40947e-201
1.01303e-201
7.08934e-202
4.84709e-202
3.24686e-202
2.13585e-202
1.38249e-202
8.81983e-203
5.5537e-203
3.45579e-203
2.12713e-203
1.29623e-203
7.82543e-204
4.68276e-204
2.77864e-204
1.63533e-204
9.5471e-205
5.52868e-205
3.17529e-205
1.80817e-205
1.02054e-205
5.70443e-206
3.14995e-206
1.72886e-206
9.42567e-207
5.10327e-207
2.74431e-207
1.46649e-207
7.79305e-208
4.122e-208
2.17221e-208
1.14159e-208
5.98901e-209
3.13924e-209
1.64549e-209
8.63243e-210
4.53621e-210
2.38968e-210
1.26315e-210
6.70567e-211
3.57879e-211
1.92224e-211
1.0403e-211
5.67972e-212
3.13249e-212
1.74763e-212
9.87741e-213
5.66411e-213
3.3006e-213
1.9574e-213
1.18286e-213
7.28788e-214
4.57463e-214
2.91665e-214
1.87728e-214
1.20825e-214
7.68487e-215
4.78123e-215
2.91364e-215
1.79837e-215
1.22859e-215
1.03736e-215
-9.26947e-201
-9.20321e-201
-1.13954e-200
-1.45048e-200
-1.62144e-200
-1.54076e-200
-1.23029e-200
-7.82093e-201
-3.0206e-201
1.22983e-201
4.39937e-201
6.30979e-201
7.0623e-201
6.92273e-201
6.20946e-201
5.21242e-201
4.15121e-201
3.1659e-201
2.32789e-201
1.65899e-201
1.15067e-201
7.79417e-202
5.17042e-202
3.3671e-202
2.15693e-202
1.36149e-202
8.48069e-203
5.21957e-203
3.17754e-203
1.91514e-203
1.14364e-203
6.77077e-204
3.97609e-204
2.31687e-204
1.33992e-204
7.6919e-205
4.38281e-205
2.47841e-205
1.39058e-205
7.7364e-206
4.25871e-206
2.33212e-206
1.26975e-206
6.87199e-207
3.69744e-207
1.97864e-207
1.05383e-207
5.59075e-208
2.95696e-208
1.56059e-208
8.22581e-209
4.33393e-209
2.28426e-209
1.20534e-209
6.37251e-210
3.37824e-210
1.79726e-210
9.60397e-211
5.15971e-211
2.78983e-211
1.51979e-211
8.35127e-212
4.63475e-212
2.60123e-212
1.47846e-212
8.52205e-213
4.98909e-213
2.97064e-213
1.801e-213
1.11218e-213
6.98825e-214
4.45192e-214
2.85551e-214
1.82412e-214
1.14438e-214
6.95458e-215
4.07846e-215
2.37791e-215
1.52351e-215
1.2415e-215
-1.64183e-200
-1.62436e-200
-1.9776e-200
-2.48306e-200
-2.75323e-200
-2.60043e-200
-2.06164e-200
-1.29278e-200
-4.73705e-201
2.47966e-201
7.82229e-201
1.09962e-200
1.21868e-200
1.18606e-200
1.05711e-200
8.81844e-201
6.978e-201
5.2858e-201
3.85885e-201
2.72919e-201
1.8778e-201
1.26122e-201
8.29277e-202
5.35085e-202
3.39509e-202
2.12204e-202
1.30855e-202
7.9713e-203
4.80249e-203
2.86436e-203
1.69268e-203
9.9179e-204
5.76521e-204
3.32634e-204
1.90558e-204
1.08416e-204
6.12651e-205
3.4386e-205
1.9167e-205
1.06054e-205
5.81456e-206
3.17389e-206
1.72404e-206
9.31763e-207
5.01096e-207
2.68269e-207
1.43061e-207
7.60489e-208
4.03308e-208
2.13554e-208
1.12993e-208
5.97872e-209
3.16588e-209
1.67891e-209
8.9232e-210
4.75657e-210
2.54499e-210
1.36791e-210
7.39256e-211
4.02085e-211
2.20332e-211
1.21773e-211
6.79603e-212
3.83466e-212
2.19047e-212
1.26847e-212
7.45689e-213
4.45594e-213
2.70929e-213
1.67643e-213
1.05416e-213
6.70843e-214
4.28628e-214
2.71566e-214
1.67804e-214
9.93152e-215
5.56993e-215
3.02803e-215
1.78289e-215
1.38447e-215
-2.88179e-200
-2.84363e-200
-3.41744e-200
-4.2448e-200
-4.67547e-200
-4.39324e-200
-3.46096e-200
-2.14328e-200
-7.45954e-201
4.79871e-201
1.38153e-200
1.91019e-200
2.09938e-200
2.03065e-200
1.79992e-200
1.49333e-200
1.17501e-200
8.84763e-201
6.41817e-201