/*--------------------------------*- C++ -*----------------------------------*\
  =========                 |
  \\      /  F ield         | OpenFOAM: The Open Source CFD Toolbox
   \\    /   O peration     | Website:  https://openfoam.org
    \\  /    A nd           | Version:  11
     \\/     M anipulation  |
\*---------------------------------------------------------------------------*/
FoamFile
{
    format      ascii;
    class       volScalarField;
    location    "1457";
    object      p;
}
// * * * * * * * * * * * * * * * * * * * * * * * * * * * * * * * * * * * * * //

dimensions      [0 2 -2 0 0 0 0];

internalField   nonuniform List<scalar> 
440320
(
5.47583
5.43314
5.40309
5.38585
5.37449
5.36617
5.35996
5.35531
5.35177
5.34903
5.34688
5.34515
5.34375
5.34259
5.34162
5.3408
5.3401
5.33949
5.33897
5.33851
5.3381
5.33774
5.33743
5.33714
5.33689
5.33667
5.33647
5.33629
5.33614
5.336
5.33588
5.33577
5.33568
5.3356
5.33553
5.33547
5.33543
5.3354
5.33538
5.33537
5.33537
5.33538
5.3354
5.33543
5.33547
5.33553
5.3356
5.33568
5.33577
5.33588
5.336
5.33614
5.33629
5.33647
5.33667
5.33689
5.33714
5.33743
5.33774
5.3381
5.33851
5.33897
5.33949
5.3401
5.3408
5.34162
5.34259
5.34375
5.34515
5.34688
5.34903
5.35177
5.35531
5.35996
5.36617
5.37449
5.38585
5.40309
5.43314
5.47583
5.37921
5.37678
5.37284
5.3684
5.36406
5.36009
5.3566
5.35361
5.35106
5.34891
5.34709
5.34554
5.34423
5.3431
5.34214
5.3413
5.34057
5.33994
5.33938
5.33889
5.33846
5.33808
5.33774
5.33743
5.33716
5.33692
5.33671
5.33652
5.33635
5.3362
5.33607
5.33595
5.33585
5.33577
5.3357
5.33564
5.33559
5.33556
5.33553
5.33552
5.33552
5.33553
5.33556
5.33559
5.33564
5.3357
5.33577
5.33585
5.33595
5.33607
5.3362
5.33635
5.33652
5.33671
5.33692
5.33716
5.33743
5.33774
5.33808
5.33846
5.33889
5.33938
5.33994
5.34057
5.3413
5.34214
5.3431
5.34423
5.34554
5.34709
5.34891
5.35106
5.35361
5.3566
5.36009
5.36406
5.3684
5.37284
5.37678
5.37921
5.3558
5.35789
5.35898
5.35829
5.3567
5.35482
5.3529
5.35104
5.34931
5.34773
5.34632
5.34506
5.34394
5.34296
5.34209
5.34132
5.34064
5.34003
5.3395
5.33902
5.33859
5.33821
5.33787
5.33757
5.3373
5.33705
5.33684
5.33664
5.33647
5.33632
5.33618
5.33606
5.33596
5.33587
5.3358
5.33574
5.33569
5.33565
5.33563
5.33562
5.33562
5.33563
5.33565
5.33569
5.33574
5.3358
5.33587
5.33596
5.33606
5.33618
5.33632
5.33647
5.33664
5.33684
5.33705
5.3373
5.33757
5.33787
5.33821
5.33859
5.33902
5.3395
5.34003
5.34064
5.34132
5.34209
5.34296
5.34394
5.34506
5.34632
5.34773
5.34931
5.35104
5.3529
5.35482
5.3567
5.35829
5.35898
5.35789
5.3558
5.34716
5.34911
5.35057
5.35093
5.35057
5.34985
5.34893
5.34791
5.34686
5.34583
5.34485
5.34393
5.34308
5.3423
5.34159
5.34094
5.34036
5.33982
5.33934
5.33891
5.33852
5.33817
5.33785
5.33756
5.3373
5.33706
5.33685
5.33667
5.3365
5.33635
5.33622
5.3361
5.336
5.33591
5.33584
5.33578
5.33573
5.3357
5.33567
5.33566
5.33566
5.33567
5.3357
5.33573
5.33578
5.33584
5.33591
5.336
5.3361
5.33622
5.33635
5.3365
5.33667
5.33685
5.33706
5.3373
5.33756
5.33785
5.33817
5.33852
5.33891
5.33934
5.33982
5.34036
5.34094
5.34159
5.3423
5.34308
5.34393
5.34485
5.34583
5.34686
5.34791
5.34893
5.34985
5.35057
5.35093
5.35057
5.34911
5.34716
5.34238
5.34388
5.34517
5.34582
5.346
5.34587
5.34553
5.34504
5.34447
5.34385
5.34322
5.34259
5.34198
5.3414
5.34085
5.34033
5.33986
5.33942
5.33901
5.33863
5.33829
5.33798
5.33769
5.33743
5.33719
5.33698
5.33678
5.33661
5.33645
5.33631
5.33619
5.33608
5.33598
5.3359
5.33583
5.33577
5.33573
5.33569
5.33567
5.33566
5.33566
5.33567
5.33569
5.33573
5.33577
5.33583
5.3359
5.33598
5.33608
5.33619
5.33631
5.33645
5.33661
5.33678
5.33698
5.33719
5.33743
5.33769
5.33798
5.33829
5.33863
5.33901
5.33942
5.33986
5.34033
5.34085
5.3414
5.34198
5.34259
5.34322
5.34385
5.34447
5.34504
5.34553
5.34587
5.346
5.34582
5.34517
5.34388
5.34238
5.33958
5.34068
5.3417
5.34236
5.34271
5.34283
5.34279
5.34261
5.34233
5.34199
5.34161
5.3412
5.34079
5.34037
5.33997
5.33958
5.33921
5.33886
5.33854
5.33823
5.33794
5.33767
5.33743
5.3372
5.33699
5.3368
5.33663
5.33647
5.33633
5.3362
5.33609
5.33599
5.3359
5.33582
5.33576
5.33571
5.33567
5.33563
5.33561
5.3356
5.3356
5.33561
5.33563
5.33567
5.33571
5.33576
5.33582
5.3359
5.33599
5.33609
5.3362
5.33633
5.33647
5.33663
5.3368
5.33699
5.3372
5.33743
5.33767
5.33794
5.33823
5.33854
5.33886
5.33921
5.33958
5.33997
5.34037
5.34079
5.3412
5.34161
5.34199
5.34233
5.34261
5.34279
5.34283
5.34271
5.34236
5.3417
5.34068
5.33958
5.33772
5.33854
5.33933
5.33991
5.34029
5.34051
5.3406
5.34059
5.34049
5.34032
5.34011
5.33987
5.33961
5.33933
5.33905
5.33877
5.33849
5.33823
5.33797
5.33773
5.3375
5.33728
5.33708
5.33689
5.33672
5.33655
5.3364
5.33627
5.33614
5.33603
5.33593
5.33584
5.33576
5.3357
5.33564
5.33559
5.33555
5.33553
5.33551
5.3355
5.3355
5.33551
5.33553
5.33555
5.33559
5.33564
5.3357
5.33576
5.33584
5.33593
5.33603
5.33614
5.33627
5.3364
5.33655
5.33672
5.33689
5.33708
5.33728
5.3375
5.33773
5.33797
5.33823
5.33849
5.33877
5.33905
5.33933
5.33961
5.33987
5.34011
5.34032
5.34049
5.34059
5.3406
5.34051
5.34029
5.33991
5.33933
5.33854
5.33772
5.33638
5.337
5.33762
5.33811
5.33846
5.33871
5.33886
5.33893
5.33893
5.33888
5.33878
5.33865
5.33849
5.33832
5.33813
5.33794
5.33774
5.33755
5.33736
5.33718
5.337
5.33683
5.33667
5.33652
5.33637
5.33624
5.33612
5.336
5.3359
5.3358
5.33572
5.33564
5.33558
5.33552
5.33547
5.33543
5.33539
5.33537
5.33535
5.33534
5.33534
5.33535
5.33537
5.33539
5.33543
5.33547
5.33552
5.33558
5.33564
5.33572
5.3358
5.3359
5.336
5.33612
5.33624
5.33637
5.33652
5.33667
5.33683
5.337
5.33718
5.33736
5.33755
5.33774
5.33794
5.33813
5.33832
5.33849
5.33865
5.33878
5.33888
5.33893
5.33893
5.33886
5.33871
5.33846
5.33811
5.33762
5.337
5.33638
5.33535
5.33583
5.33633
5.33673
5.33704
5.33728
5.33746
5.33757
5.33762
5.33763
5.33761
5.33755
5.33747
5.33737
5.33725
5.33713
5.337
5.33686
5.33673
5.33659
5.33646
5.33634
5.33621
5.33609
5.33598
5.33588
5.33578
5.33569
5.33561
5.33553
5.33546
5.3354
5.33534
5.33529
5.33525
5.33522
5.33519
5.33517
5.33515
5.33515
5.33515
5.33515
5.33517
5.33519
5.33522
5.33525
5.33529
5.33534
5.3354
5.33546
5.33553
5.33561
5.33569
5.33578
5.33588
5.33598
5.33609
5.33621
5.33634
5.33646
5.33659
5.33673
5.33686
5.337
5.33713
5.33725
5.33737
5.33747
5.33755
5.33761
5.33763
5.33762
5.33757
5.33746
5.33728
5.33704
5.33673
5.33633
5.33583
5.33535
5.33453
5.33491
5.33531
5.33564
5.33592
5.33614
5.33631
5.33643
5.33652
5.33656
5.33658
5.33657
5.33654
5.33649
5.33643
5.33635
5.33627
5.33619
5.3361
5.336
5.33591
5.33582
5.33573
5.33564
5.33556
5.33548
5.33541
5.33534
5.33527
5.33521
5.33516
5.33511
5.33506
5.33502
5.33499
5.33496
5.33494
5.33493
5.33491
5.33491
5.33491
5.33491
5.33493
5.33494
5.33496
5.33499
5.33502
5.33506
5.33511
5.33516
5.33521
5.33527
5.33534
5.33541
5.33548
5.33556
5.33564
5.33573
5.33582
5.33591
5.336
5.3361
5.33619
5.33627
5.33635
5.33643
5.33649
5.33654
5.33657
5.33658
5.33656
5.33652
5.33643
5.33631
5.33614
5.33592
5.33564
5.33531
5.33491
5.33453
5.33385
5.33416
5.33448
5.33476
5.33499
5.33519
5.33535
5.33548
5.33557
5.33564
5.33568
5.3357
5.3357
5.33569
5.33566
5.33563
5.33558
5.33553
5.33548
5.33542
5.33536
5.3353
5.33524
5.33518
5.33512
5.33506
5.33501
5.33496
5.33491
5.33486
5.33482
5.33479
5.33475
5.33472
5.3347
5.33468
5.33466
5.33465
5.33464
5.33464
5.33464
5.33464
5.33465
5.33466
5.33468
5.3347
5.33472
5.33475
5.33479
5.33482
5.33486
5.33491
5.33496
5.33501
5.33506
5.33512
5.33518
5.33524
5.3353
5.33536
5.33542
5.33548
5.33553
5.33558
5.33563
5.33566
5.33569
5.3357
5.3357
5.33568
5.33564
5.33557
5.33548
5.33535
5.33519
5.33499
5.33476
5.33448
5.33416
5.33385
5.33327
5.33352
5.33379
5.33402
5.33422
5.33439
5.33454
5.33466
5.33476
5.33483
5.33489
5.33493
5.33495
5.33496
5.33496
5.33495
5.33493
5.33491
5.33488
5.33485
5.33481
5.33477
5.33474
5.3347
5.33466
5.33462
5.33459
5.33455
5.33452
5.33449
5.33446
5.33444
5.33441
5.33439
5.33438
5.33436
5.33435
5.33434
5.33433
5.33433
5.33433
5.33433
5.33434
5.33435
5.33436
5.33438
5.33439
5.33441
5.33444
5.33446
5.33449
5.33452
5.33455
5.33459
5.33462
5.33466
5.3347
5.33474
5.33477
5.33481
5.33485
5.33488
5.33491
5.33493
5.33495
5.33496
5.33496
5.33495
5.33493
5.33489
5.33483
5.33476
5.33466
5.33454
5.33439
5.33422
5.33402
5.33379
5.33352
5.33327
5.33276
5.33297
5.33319
5.33339
5.33356
5.33371
5.33384
5.33395
5.33405
5.33412
5.33419
5.33423
5.33427
5.33429
5.33431
5.33432
5.33432
5.33431
5.33431
5.33429
5.33428
5.33426
5.33424
5.33422
5.3342
5.33418
5.33416
5.33414
5.33412
5.3341
5.33408
5.33407
5.33405
5.33404
5.33403
5.33402
5.33401
5.33401
5.334
5.334
5.334
5.334
5.33401
5.33401
5.33402
5.33403
5.33404
5.33405
5.33407
5.33408
5.3341
5.33412
5.33414
5.33416
5.33418
5.3342
5.33422
5.33424
5.33426
5.33428
5.33429
5.33431
5.33431
5.33432
5.33432
5.33431
5.33429
5.33427
5.33423
5.33419
5.33412
5.33405
5.33395
5.33384
5.33371
5.33356
5.33339
5.33319
5.33297
5.33276
5.33231
5.33248
5.33267
5.33283
5.33298
5.33311
5.33323
5.33333
5.33342
5.33349
5.33356
5.33361
5.33365
5.33368
5.33371
5.33373
5.33375
5.33375
5.33376
5.33376
5.33376
5.33376
5.33375
5.33375
5.33374
5.33373
5.33372
5.33372
5.33371
5.3337
5.33369
5.33368
5.33368
5.33367
5.33366
5.33366
5.33366
5.33365
5.33365
5.33365
5.33365
5.33365
5.33365
5.33366
5.33366
5.33366
5.33367
5.33368
5.33368
5.33369
5.3337
5.33371
5.33372
5.33372
5.33373
5.33374
5.33375
5.33375
5.33376
5.33376
5.33376
5.33376
5.33375
5.33375
5.33373
5.33371
5.33368
5.33365
5.33361
5.33356
5.33349
5.33342
5.33333
5.33323
5.33311
5.33298
5.33283
5.33267
5.33248
5.33231
5.3319
5.33204
5.3322
5.33234
5.33246
5.33258
5.33268
5.33277
5.33285
5.33292
5.33299
5.33304
5.33309
5.33312
5.33316
5.33318
5.33321
5.33323
5.33324
5.33325
5.33326
5.33327
5.33328
5.33328
5.33329
5.33329
5.33329
5.33329
5.33329
5.33329
5.33329
5.33329
5.33329
5.33329
5.33329
5.33329
5.33329
5.33328
5.33328
5.33328
5.33328
5.33328
5.33328
5.33329
5.33329
5.33329
5.33329
5.33329
5.33329
5.33329
5.33329
5.33329
5.33329
5.33329
5.33329
5.33329
5.33328
5.33328
5.33327
5.33326
5.33325
5.33324
5.33323
5.33321
5.33318
5.33316
5.33312
5.33309
5.33304
5.33299
5.33292
5.33285
5.33277
5.33268
5.33258
5.33246
5.33234
5.3322
5.33204
5.3319
5.33152
5.33164
5.33177
5.33189
5.332
5.3321
5.33219
5.33227
5.33234
5.33241
5.33247
5.33252
5.33257
5.33261
5.33264
5.33267
5.3327
5.33273
5.33275
5.33277
5.33279
5.3328
5.33282
5.33283
5.33284
5.33285
5.33286
5.33287
5.33287
5.33288
5.33288
5.33289
5.33289
5.3329
5.3329
5.3329
5.3329
5.33291
5.33291
5.33291
5.33291
5.33291
5.33291
5.3329
5.3329
5.3329
5.3329
5.33289
5.33289
5.33288
5.33288
5.33287
5.33287
5.33286
5.33285
5.33284
5.33283
5.33282
5.3328
5.33279
5.33277
5.33275
5.33273
5.3327
5.33267
5.33264
5.33261
5.33257
5.33252
5.33247
5.33241
5.33234
5.33227
5.33219
5.3321
5.332
5.33189
5.33177
5.33164
5.33152
5.33116
5.33126
5.33138
5.33148
5.33157
5.33165
5.33173
5.33181
5.33187
5.33193
5.33199
5.33204
5.33208
5.33212
5.33216
5.3322
5.33223
5.33226
5.33228
5.33231
5.33233
5.33235
5.33237
5.33239
5.3324
5.33242
5.33243
5.33245
5.33246
5.33247
5.33248
5.33249
5.3325
5.3325
5.33251
5.33251
5.33252
5.33252
5.33252
5.33252
5.33252
5.33252
5.33252
5.33252
5.33251
5.33251
5.3325
5.3325
5.33249
5.33248
5.33247
5.33246
5.33245
5.33243
5.33242
5.3324
5.33239
5.33237
5.33235
5.33233
5.33231
5.33228
5.33226
5.33223
5.3322
5.33216
5.33212
5.33208
5.33204
5.33199
5.33193
5.33187
5.33181
5.33173
5.33165
5.33157
5.33148
5.33138
5.33126
5.33116
5.33082
5.33091
5.33101
5.33109
5.33117
5.33125
5.33131
5.33138
5.33144
5.33149
5.33154
5.33159
5.33163
5.33167
5.33171
5.33175
5.33178
5.33181
5.33184
5.33186
5.33189
5.33191
5.33194
5.33196
5.33198
5.332
5.33201
5.33203
5.33205
5.33206
5.33207
5.33209
5.3321
5.33211
5.33212
5.33212
5.33213
5.33213
5.33213
5.33214
5.33214
5.33213
5.33213
5.33213
5.33212
5.33212
5.33211
5.3321
5.33209
5.33207
5.33206
5.33205
5.33203
5.33201
5.332
5.33198
5.33196
5.33194
5.33191
5.33189
5.33186
5.33184
5.33181
5.33178
5.33175
5.33171
5.33167
5.33163
5.33159
5.33154
5.33149
5.33144
5.33138
5.33131
5.33125
5.33117
5.33109
5.33101
5.33091
5.33082
5.3305
5.33057
5.33065
5.33073
5.3308
5.33086
5.33092
5.33098
5.33103
5.33108
5.33113
5.33117
5.33121
5.33125
5.33128
5.33132
5.33135
5.33138
5.33141
5.33144
5.33147
5.33149
5.33152
5.33154
5.33156
5.33158
5.3316
5.33162
5.33164
5.33166
5.33167
5.33169
5.3317
5.33171
5.33172
5.33173
5.33174
5.33174
5.33175
5.33175
5.33175
5.33175
5.33174
5.33174
5.33173
5.33172
5.33171
5.3317
5.33169
5.33167
5.33166
5.33164
5.33162
5.3316
5.33158
5.33156
5.33154
5.33152
5.33149
5.33147
5.33144
5.33141
5.33138
5.33135
5.33132
5.33128
5.33125
5.33121
5.33117
5.33113
5.33108
5.33103
5.33098
5.33092
5.33086
5.3308
5.33073
5.33065
5.33057
5.3305
5.33019
5.33025
5.33032
5.33038
5.33044
5.3305
5.33055
5.3306
5.33065
5.33069
5.33073
5.33077
5.33081
5.33085
5.33088
5.33091
5.33094
5.33097
5.331
5.33103
5.33106
5.33108
5.33111
5.33114
5.33116
5.33118
5.3312
5.33122
5.33124
5.33126
5.33128
5.33129
5.33131
5.33132
5.33133
5.33134
5.33135
5.33135
5.33136
5.33136
5.33136
5.33136
5.33135
5.33135
5.33134
5.33133
5.33132
5.33131
5.33129
5.33128
5.33126
5.33124
5.33122
5.3312
5.33118
5.33116
5.33114
5.33111
5.33108
5.33106
5.33103
5.331
5.33097
5.33094
5.33091
5.33088
5.33085
5.33081
5.33077
5.33073
5.33069
5.33065
5.3306
5.33055
5.3305
5.33044
5.33038
5.33032
5.33025
5.33019
5.32988
5.32994
5.33
5.33005
5.3301
5.33015
5.3302
5.33024
5.33028
5.33032
5.33036
5.33039
5.33043
5.33046
5.33049
5.33052
5.33055
5.33058
5.33061
5.33064
5.33066
5.33069
5.33072
5.33074
5.33077
5.33079
5.33081
5.33083
5.33085
5.33087
5.33089
5.33091
5.33092
5.33093
5.33095
5.33095
5.33096
5.33097
5.33097
5.33097
5.33097
5.33097
5.33097
5.33096
5.33095
5.33095
5.33093
5.33092
5.33091
5.33089
5.33087
5.33085
5.33083
5.33081
5.33079
5.33077
5.33074
5.33072
5.33069
5.33066
5.33064
5.33061
5.33058
5.33055
5.33052
5.33049
5.33046
5.33043
5.33039
5.33036
5.33032
5.33028
5.33024
5.3302
5.33015
5.3301
5.33005
5.33
5.32994
5.32988
5.32959
5.32963
5.32968
5.32973
5.32977
5.32981
5.32985
5.32989
5.32993
5.32996
5.33
5.33003
5.33006
5.33009
5.33012
5.33015
5.33018
5.3302
5.33023
5.33026
5.33028
5.33031
5.33034
5.33036
5.33038
5.33041
5.33043
5.33045
5.33047
5.33049
5.33051
5.33052
5.33054
5.33055
5.33056
5.33057
5.33058
5.33059
5.33059
5.33059
5.33059
5.33059
5.33059
5.33058
5.33057
5.33056
5.33055
5.33054
5.33052
5.33051
5.33049
5.33047
5.33045
5.33043
5.33041
5.33038
5.33036
5.33034
5.33031
5.33028
5.33026
5.33023
5.3302
5.33018
5.33015
5.33012
5.33009
5.33006
5.33003
5.33
5.32996
5.32993
5.32989
5.32985
5.32981
5.32977
5.32973
5.32968
5.32963
5.32959
5.32929
5.32933
5.32938
5.32941
5.32945
5.32949
5.32952
5.32956
5.32959
5.32962
5.32965
5.32968
5.32971
5.32973
5.32976
5.32979
5.32981
5.32984
5.32987
5.32989
5.32992
5.32994
5.32996
5.32999
5.33001
5.33003
5.33006
5.33008
5.3301
5.33012
5.33013
5.33015
5.33016
5.33018
5.33019
5.3302
5.33021
5.33021
5.33022
5.33022
5.33022
5.33022
5.33021
5.33021
5.3302
5.33019
5.33018
5.33016
5.33015
5.33013
5.33012
5.3301
5.33008
5.33006
5.33003
5.33001
5.32999
5.32996
5.32994
5.32992
5.32989
5.32987
5.32984
5.32981
5.32979
5.32976
5.32973
5.32971
5.32968
5.32965
5.32962
5.32959
5.32956
5.32952
5.32949
5.32945
5.32941
5.32938
5.32933
5.32929
5.32901
5.32904
5.32907
5.32911
5.32914
5.32917
5.3292
5.32923
5.32926
5.32929
5.32931
5.32934
5.32936
5.32939
5.32941
5.32944
5.32946
5.32949
5.32951
5.32953
5.32956
5.32958
5.3296
5.32963
5.32965
5.32967
5.32969
5.32971
5.32973
5.32975
5.32976
5.32978
5.32979
5.32981
5.32982
5.32983
5.32984
5.32984
5.32984
5.32985
5.32985
5.32984
5.32984
5.32984
5.32983
5.32982
5.32981
5.32979
5.32978
5.32976
5.32975
5.32973
5.32971
5.32969
5.32967
5.32965
5.32963
5.3296
5.32958
5.32956
5.32953
5.32951
5.32949
5.32946
5.32944
5.32941
5.32939
5.32936
5.32934
5.32931
5.32929
5.32926
5.32923
5.3292
5.32917
5.32914
5.32911
5.32907
5.32904
5.32901
5.32872
5.32875
5.32878
5.32881
5.32883
5.32886
5.32889
5.32891
5.32894
5.32896
5.32898
5.32901
5.32903
5.32905
5.32908
5.3291
5.32912
5.32914
5.32916
5.32919
5.32921
5.32923
5.32925
5.32927
5.32929
5.32931
5.32933
5.32935
5.32937
5.32939
5.3294
5.32942
5.32943
5.32944
5.32945
5.32946
5.32947
5.32948
5.32948
5.32948
5.32948
5.32948
5.32948
5.32947
5.32946
5.32945
5.32944
5.32943
5.32942
5.3294
5.32939
5.32937
5.32935
5.32933
5.32931
5.32929
5.32927
5.32925
5.32923
5.32921
5.32919
5.32916
5.32914
5.32912
5.3291
5.32908
5.32905
5.32903
5.32901
5.32898
5.32896
5.32894
5.32891
5.32889
5.32886
5.32883
5.32881
5.32878
5.32875
5.32872
5.32843
5.32846
5.32848
5.32851
5.32853
5.32856
5.32858
5.3286
5.32862
5.32864
5.32866
5.32868
5.3287
5.32872
5.32874
5.32876
5.32878
5.32881
5.32883
5.32885
5.32887
5.32889
5.32891
5.32893
5.32894
5.32896
5.32898
5.329
5.32902
5.32903
5.32905
5.32906
5.32908
5.32909
5.3291
5.32911
5.32911
5.32912
5.32912
5.32912
5.32912
5.32912
5.32912
5.32911
5.32911
5.3291
5.32909
5.32908
5.32906
5.32905
5.32903
5.32902
5.329
5.32898
5.32896
5.32894
5.32893
5.32891
5.32889
5.32887
5.32885
5.32883
5.32881
5.32878
5.32876
5.32874
5.32872
5.3287
5.32868
5.32866
5.32864
5.32862
5.3286
5.32858
5.32856
5.32853
5.32851
5.32848
5.32846
5.32843
5.32815
5.32817
5.32819
5.32821
5.32823
5.32825
5.32827
5.32829
5.32831
5.32833
5.32835
5.32837
5.32838
5.3284
5.32842
5.32844
5.32846
5.32848
5.32849
5.32851
5.32853
5.32855
5.32857
5.32859
5.3286
5.32862
5.32864
5.32865
5.32867
5.32869
5.3287
5.32871
5.32872
5.32874
5.32874
5.32875
5.32876
5.32876
5.32877
5.32877
5.32877
5.32877
5.32876
5.32876
5.32875
5.32874
5.32874
5.32872
5.32871
5.3287
5.32869
5.32867
5.32865
5.32864
5.32862
5.3286
5.32859
5.32857
5.32855
5.32853
5.32851
5.32849
5.32848
5.32846
5.32844
5.32842
5.3284
5.32838
5.32837
5.32835
5.32833
5.32831
5.32829
5.32827
5.32825
5.32823
5.32821
5.32819
5.32817
5.32815
5.32787
5.32788
5.3279
5.32792
5.32794
5.32796
5.32797
5.32799
5.32801
5.32802
5.32804
5.32805
5.32807
5.32809
5.3281
5.32812
5.32813
5.32815
5.32817
5.32818
5.3282
5.32822
5.32824
5.32825
5.32827
5.32828
5.3283
5.32832
5.32833
5.32834
5.32836
5.32837
5.32838
5.32839
5.3284
5.32841
5.32841
5.32842
5.32842
5.32842
5.32842
5.32842
5.32842
5.32841
5.32841
5.3284
5.32839
5.32838
5.32837
5.32836
5.32834
5.32833
5.32832
5.3283
5.32828
5.32827
5.32825
5.32824
5.32822
5.3282
5.32818
5.32817
5.32815
5.32813
5.32812
5.3281
5.32809
5.32807
5.32805
5.32804
5.32802
5.32801
5.32799
5.32797
5.32796
5.32794
5.32792
5.3279
5.32788
5.32787
5.32758
5.3276
5.32762
5.32763
5.32765
5.32766
5.32767
5.32769
5.3277
5.32772
5.32773
5.32775
5.32776
5.32777
5.32779
5.3278
5.32782
5.32783
5.32785
5.32786
5.32788
5.32789
5.32791
5.32792
5.32794
5.32795
5.32797
5.32798
5.32799
5.32801
5.32802
5.32803
5.32804
5.32805
5.32806
5.32806
5.32807
5.32807
5.32808
5.32808
5.32808
5.32808
5.32807
5.32807
5.32806
5.32806
5.32805
5.32804
5.32803
5.32802
5.32801
5.32799
5.32798
5.32797
5.32795
5.32794
5.32792
5.32791
5.32789
5.32788
5.32786
5.32785
5.32783
5.32782
5.3278
5.32779
5.32777
5.32776
5.32775
5.32773
5.32772
5.3277
5.32769
5.32767
5.32766
5.32765
5.32763
5.32762
5.3276
5.32758
5.3273
5.32731
5.32733
5.32734
5.32735
5.32737
5.32738
5.32739
5.3274
5.32742
5.32743
5.32744
5.32745
5.32747
5.32748
5.32749
5.3275
5.32752
5.32753
5.32754
5.32756
5.32757
5.32759
5.3276
5.32761
5.32763
5.32764
5.32765
5.32766
5.32768
5.32769
5.3277
5.32771
5.32771
5.32772
5.32773
5.32773
5.32774
5.32774
5.32774
5.32774
5.32774
5.32774
5.32773
5.32773
5.32772
5.32771
5.32771
5.3277
5.32769
5.32768
5.32766
5.32765
5.32764
5.32763
5.32761
5.3276
5.32759
5.32757
5.32756
5.32754
5.32753
5.32752
5.3275
5.32749
5.32748
5.32747
5.32745
5.32744
5.32743
5.32742
5.3274
5.32739
5.32738
5.32737
5.32735
5.32734
5.32733
5.32731
5.3273
5.32702
5.32703
5.32704
5.32705
5.32706
5.32707
5.32708
5.32709
5.32711
5.32712
5.32713
5.32714
5.32715
5.32716
5.32717
5.32718
5.32719
5.32721
5.32722
5.32723
5.32724
5.32725
5.32727
5.32728
5.32729
5.3273
5.32732
5.32733
5.32734
5.32735
5.32736
5.32737
5.32738
5.32738
5.32739
5.3274
5.3274
5.3274
5.32741
5.32741
5.32741
5.32741
5.3274
5.3274
5.3274
5.32739
5.32738
5.32738
5.32737
5.32736
5.32735
5.32734
5.32733
5.32732
5.3273
5.32729
5.32728
5.32727
5.32725
5.32724
5.32723
5.32722
5.32721
5.32719
5.32718
5.32717
5.32716
5.32715
5.32714
5.32713
5.32712
5.32711
5.32709
5.32708
5.32707
5.32706
5.32705
5.32704
5.32703
5.32702
5.32674
5.32674
5.32675
5.32676
5.32677
5.32678
5.32679
5.3268
5.32681
5.32682
5.32683
5.32684
5.32685
5.32686
5.32687
5.32688
5.32689
5.3269
5.32691
5.32692
5.32693
5.32694
5.32695
5.32696
5.32697
5.32699
5.327
5.32701
5.32702
5.32703
5.32703
5.32704
5.32705
5.32706
5.32706
5.32707
5.32707
5.32708
5.32708
5.32708
5.32708
5.32708
5.32708
5.32707
5.32707
5.32706
5.32706
5.32705
5.32704
5.32703
5.32703
5.32702
5.32701
5.327
5.32699
5.32697
5.32696
5.32695
5.32694
5.32693
5.32692
5.32691
5.3269
5.32689
5.32688
5.32687
5.32686
5.32685
5.32684
5.32683
5.32682
5.32681
5.3268
5.32679
5.32678
5.32677
5.32676
5.32675
5.32674
5.32674
5.32645
5.32646
5.32647
5.32647
5.32648
5.32649
5.3265
5.32651
5.32651
5.32652
5.32653
5.32654
5.32655
5.32656
5.32656
5.32657
5.32658
5.32659
5.3266
5.32661
5.32662
5.32663
5.32664
5.32665
5.32666
5.32667
5.32668
5.32669
5.3267
5.32671
5.32671
5.32672
5.32673
5.32674
5.32674
5.32675
5.32675
5.32675
5.32675
5.32675
5.32675
5.32675
5.32675
5.32675
5.32675
5.32674
5.32674
5.32673
5.32672
5.32671
5.32671
5.3267
5.32669
5.32668
5.32667
5.32666
5.32665
5.32664
5.32663
5.32662
5.32661
5.3266
5.32659
5.32658
5.32657
5.32656
5.32656
5.32655
5.32654
5.32653
5.32652
5.32651
5.32651
5.3265
5.32649
5.32648
5.32647
5.32647
5.32646
5.32645
5.32617
5.32617
5.32618
5.32619
5.32619
5.3262
5.32621
5.32621
5.32622
5.32623
5.32623
5.32624
5.32625
5.32626
5.32626
5.32627
5.32628
5.32629
5.3263
5.32631
5.32631
5.32632
5.32633
5.32634
5.32635
5.32636
5.32637
5.32637
5.32638
5.32639
5.3264
5.3264
5.32641
5.32642
5.32642
5.32642
5.32643
5.32643
5.32643
5.32643
5.32643
5.32643
5.32643
5.32643
5.32642
5.32642
5.32642
5.32641
5.3264
5.3264
5.32639
5.32638
5.32637
5.32637
5.32636
5.32635
5.32634
5.32633
5.32632
5.32631
5.32631
5.3263
5.32629
5.32628
5.32627
5.32626
5.32626
5.32625
5.32624
5.32623
5.32623
5.32622
5.32621
5.32621
5.3262
5.32619
5.32619
5.32618
5.32617
5.32617
5.32588
5.32589
5.32589
5.3259
5.3259
5.32591
5.32591
5.32592
5.32593
5.32593
5.32594
5.32594
5.32595
5.32596
5.32596
5.32597
5.32598
5.32599
5.32599
5.326
5.32601
5.32602
5.32602
5.32603
5.32604
5.32605
5.32606
5.32606
5.32607
5.32608
5.32608
5.32609
5.32609
5.3261
5.3261
5.32611
5.32611
5.32611
5.32611
5.32612
5.32612
5.32611
5.32611
5.32611
5.32611
5.3261
5.3261
5.32609
5.32609
5.32608
5.32608
5.32607
5.32606
5.32606
5.32605
5.32604
5.32603
5.32602
5.32602
5.32601
5.326
5.32599
5.32599
5.32598
5.32597
5.32596
5.32596
5.32595
5.32594
5.32594
5.32593
5.32593
5.32592
5.32591
5.32591
5.3259
5.3259
5.32589
5.32589
5.32588
5.3256
5.3256
5.32561
5.32561
5.32561
5.32562
5.32562
5.32563
5.32563
5.32564
5.32564
5.32565
5.32566
5.32566
5.32567
5.32567
5.32568
5.32569
5.32569
5.3257
5.32571
5.32571
5.32572
5.32573
5.32573
5.32574
5.32575
5.32575
5.32576
5.32577
5.32577
5.32578
5.32578
5.32579
5.32579
5.32579
5.3258
5.3258
5.3258
5.3258
5.3258
5.3258
5.3258
5.3258
5.32579
5.32579
5.32579
5.32578
5.32578
5.32577
5.32577
5.32576
5.32575
5.32575
5.32574
5.32573
5.32573
5.32572
5.32571
5.32571
5.3257
5.32569
5.32569
5.32568
5.32567
5.32567
5.32566
5.32566
5.32565
5.32564
5.32564
5.32563
5.32563
5.32562
5.32562
5.32561
5.32561
5.32561
5.3256
5.3256
5.32531
5.32531
5.32532
5.32532
5.32532
5.32533
5.32533
5.32534
5.32534
5.32535
5.32535
5.32535
5.32536
5.32536
5.32537
5.32538
5.32538
5.32539
5.32539
5.3254
5.3254
5.32541
5.32542
5.32542
5.32543
5.32543
5.32544
5.32545
5.32545
5.32546
5.32546
5.32547
5.32547
5.32548
5.32548
5.32548
5.32548
5.32549
5.32549
5.32549
5.32549
5.32549
5.32549
5.32548
5.32548
5.32548
5.32548
5.32547
5.32547
5.32546
5.32546
5.32545
5.32545
5.32544
5.32543
5.32543
5.32542
5.32542
5.32541
5.3254
5.3254
5.32539
5.32539
5.32538
5.32538
5.32537
5.32536
5.32536
5.32535
5.32535
5.32535
5.32534
5.32534
5.32533
5.32533
5.32532
5.32532
5.32532
5.32531
5.32531
5.32502
5.32503
5.32503
5.32503
5.32503
5.32504
5.32504
5.32505
5.32505
5.32505
5.32506
5.32506
5.32506
5.32507
5.32507
5.32508
5.32508
5.32509
5.32509
5.3251
5.3251
5.32511
5.32511
5.32512
5.32512
5.32513
5.32514
5.32514
5.32515
5.32515
5.32515
5.32516
5.32516
5.32517
5.32517
5.32517
5.32517
5.32518
5.32518
5.32518
5.32518
5.32518
5.32518
5.32517
5.32517
5.32517
5.32517
5.32516
5.32516
5.32515
5.32515
5.32515
5.32514
5.32514
5.32513
5.32512
5.32512
5.32511
5.32511
5.3251
5.3251
5.32509
5.32509
5.32508
5.32508
5.32507
5.32507
5.32506
5.32506
5.32506
5.32505
5.32505
5.32505
5.32504
5.32504
5.32503
5.32503
5.32503
5.32503
5.32502
5.32474
5.32474
5.32474
5.32474
5.32474
5.32475
5.32475
5.32475
5.32476
5.32476
5.32476
5.32477
5.32477
5.32477
5.32478
5.32478
5.32479
5.32479
5.32479
5.3248
5.3248
5.32481
5.32481
5.32482
5.32482
5.32483
5.32483
5.32484
5.32484
5.32485
5.32485
5.32485
5.32486
5.32486
5.32486
5.32486
5.32487
5.32487
5.32487
5.32487
5.32487
5.32487
5.32487
5.32487
5.32486
5.32486
5.32486
5.32486
5.32485
5.32485
5.32485
5.32484
5.32484
5.32483
5.32483
5.32482
5.32482
5.32481
5.32481
5.3248
5.3248
5.32479
5.32479
5.32479
5.32478
5.32478
5.32477
5.32477
5.32477
5.32476
5.32476
5.32476
5.32475
5.32475
5.32475
5.32474
5.32474
5.32474
5.32474
5.32474
5.32445
5.32445
5.32445
5.32445
5.32445
5.32446
5.32446
5.32446
5.32446
5.32447
5.32447
5.32447
5.32448
5.32448
5.32448
5.32449
5.32449
5.32449
5.3245
5.3245
5.32451
5.32451
5.32451
5.32452
5.32452
5.32453
5.32453
5.32453
5.32454
5.32454
5.32454
5.32455
5.32455
5.32455
5.32456
5.32456
5.32456
5.32456
5.32456
5.32456
5.32456
5.32456
5.32456
5.32456
5.32456
5.32456
5.32455
5.32455
5.32455
5.32454
5.32454
5.32454
5.32453
5.32453
5.32453
5.32452
5.32452
5.32451
5.32451
5.32451
5.3245
5.3245
5.32449
5.32449
5.32449
5.32448
5.32448
5.32448
5.32447
5.32447
5.32447
5.32446
5.32446
5.32446
5.32446
5.32445
5.32445
5.32445
5.32445
5.32445
5.32416
5.32416
5.32416
5.32416
5.32416
5.32417
5.32417
5.32417
5.32417
5.32417
5.32418
5.32418
5.32418
5.32418
5.32419
5.32419
5.32419
5.3242
5.3242
5.3242
5.32421
5.32421
5.32421
5.32422
5.32422
5.32423
5.32423
5.32423
5.32424
5.32424
5.32424
5.32424
5.32425
5.32425
5.32425
5.32425
5.32425
5.32426
5.32426
5.32426
5.32426
5.32426
5.32426
5.32425
5.32425
5.32425
5.32425
5.32425
5.32424
5.32424
5.32424
5.32424
5.32423
5.32423
5.32423
5.32422
5.32422
5.32421
5.32421
5.32421
5.3242
5.3242
5.3242
5.32419
5.32419
5.32419
5.32418
5.32418
5.32418
5.32418
5.32417
5.32417
5.32417
5.32417
5.32417
5.32416
5.32416
5.32416
5.32416
5.32416
5.32387
5.32387
5.32387
5.32387
5.32387
5.32387
5.32388
5.32388
5.32388
5.32388
5.32388
5.32389
5.32389
5.32389
5.32389
5.3239
5.3239
5.3239
5.3239
5.32391
5.32391
5.32391
5.32392
5.32392
5.32392
5.32393
5.32393
5.32393
5.32393
5.32394
5.32394
5.32394
5.32394
5.32395
5.32395
5.32395
5.32395
5.32395
5.32395
5.32395
5.32395
5.32395
5.32395
5.32395
5.32395
5.32395
5.32395
5.32394
5.32394
5.32394
5.32394
5.32393
5.32393
5.32393
5.32393
5.32392
5.32392
5.32392
5.32391
5.32391
5.32391
5.3239
5.3239
5.3239
5.3239
5.32389
5.32389
5.32389
5.32389
5.32388
5.32388
5.32388
5.32388
5.32388
5.32387
5.32387
5.32387
5.32387
5.32387
5.32387
5.32358
5.32358
5.32358
5.32358
5.32358
5.32358
5.32358
5.32359
5.32359
5.32359
5.32359
5.32359
5.32359
5.3236
5.3236
5.3236
5.3236
5.32361
5.32361
5.32361
5.32361
5.32362
5.32362
5.32362
5.32362
5.32363
5.32363
5.32363
5.32363
5.32364
5.32364
5.32364
5.32364
5.32365
5.32365
5.32365
5.32365
5.32365
5.32365
5.32365
5.32365
5.32365
5.32365
5.32365
5.32365
5.32365
5.32365
5.32364
5.32364
5.32364
5.32364
5.32363
5.32363
5.32363
5.32363
5.32362
5.32362
5.32362
5.32362
5.32361
5.32361
5.32361
5.32361
5.3236
5.3236
5.3236
5.3236
5.32359
5.32359
5.32359
5.32359
5.32359
5.32359
5.32358
5.32358
5.32358
5.32358
5.32358
5.32358
5.32358
5.32329
5.32329
5.32329
5.32329
5.32329
5.32329
5.32329
5.32329
5.32329
5.3233
5.3233
5.3233
5.3233
5.3233
5.3233
5.32331
5.32331
5.32331
5.32331
5.32331
5.32332
5.32332
5.32332
5.32332
5.32333
5.32333
5.32333
5.32333
5.32334
5.32334
5.32334
5.32334
5.32334
5.32334
5.32335
5.32335
5.32335
5.32335
5.32335
5.32335
5.32335
5.32335
5.32335
5.32335
5.32335
5.32335
5.32334
5.32334
5.32334
5.32334
5.32334
5.32334
5.32333
5.32333
5.32333
5.32333
5.32332
5.32332
5.32332
5.32332
5.32331
5.32331
5.32331
5.32331
5.32331
5.3233
5.3233
5.3233
5.3233
5.3233
5.3233
5.32329
5.32329
5.32329
5.32329
5.32329
5.32329
5.32329
5.32329
5.32329
5.323
5.323
5.323
5.323
5.323
5.323
5.323
5.323
5.323
5.323
5.323
5.32301
5.32301
5.32301
5.32301
5.32301
5.32301
5.32302
5.32302
5.32302
5.32302
5.32302
5.32303
5.32303
5.32303
5.32303
5.32303
5.32304
5.32304
5.32304
5.32304
5.32304
5.32304
5.32304
5.32305
5.32305
5.32305
5.32305
5.32305
5.32305
5.32305
5.32305
5.32305
5.32305
5.32305
5.32305
5.32304
5.32304
5.32304
5.32304
5.32304
5.32304
5.32304
5.32303
5.32303
5.32303
5.32303
5.32303
5.32302
5.32302
5.32302
5.32302
5.32302
5.32301
5.32301
5.32301
5.32301
5.32301
5.32301
5.323
5.323
5.323
5.323
5.323
5.323
5.323
5.323
5.323
5.323
5.323
5.3227
5.3227
5.3227
5.32271
5.32271
5.32271
5.32271
5.32271
5.32271
5.32271
5.32271
5.32271
5.32271
5.32271
5.32272
5.32272
5.32272
5.32272
5.32272
5.32272
5.32273
5.32273
5.32273
5.32273
5.32273
5.32273
5.32274
5.32274
5.32274
5.32274
5.32274
5.32274
5.32274
5.32275
5.32275
5.32275
5.32275
5.32275
5.32275
5.32275
5.32275
5.32275
5.32275
5.32275
5.32275
5.32275
5.32275
5.32274
5.32274
5.32274
5.32274
5.32274
5.32274
5.32274
5.32273
5.32273
5.32273
5.32273
5.32273
5.32273
5.32272
5.32272
5.32272
5.32272
5.32272
5.32272
5.32271
5.32271
5.32271
5.32271
5.32271
5.32271
5.32271
5.32271
5.32271
5.32271
5.32271
5.3227
5.3227
5.3227
5.32241
5.32241
5.32241
5.32241
5.32241
5.32241
5.32241
5.32241
5.32242
5.32242
5.32242
5.32242
5.32242
5.32242
5.32242
5.32242
5.32242
5.32243
5.32243
5.32243
5.32243
5.32243
5.32243
5.32243
5.32244
5.32244
5.32244
5.32244
5.32244
5.32244
5.32244
5.32245
5.32245
5.32245
5.32245
5.32245
5.32245
5.32245