/*--------------------------------*- C++ -*----------------------------------*\
  =========                 |
  \\      /  F ield         | OpenFOAM: The Open Source CFD Toolbox
   \\    /   O peration     | Website:  https://openfoam.org
    \\  /    A nd           | Version:  11
     \\/     M anipulation  |
\*---------------------------------------------------------------------------*/
FoamFile
{
    format      ascii;
    class       volScalarField;
    location    "615";
    object      p;
}
// * * * * * * * * * * * * * * * * * * * * * * * * * * * * * * * * * * * * * //

dimensions      [0 2 -2 0 0 0 0];

internalField   nonuniform List<scalar> 
427520
(
3.2028
3.17069
3.14641
3.13142
3.12111
3.11331
3.10728
3.10262
3.09897
3.09609
3.09379
3.09193
3.09041
3.08916
3.08812
3.08724
3.08649
3.08585
3.08529
3.08481
3.08439
3.08402
3.08369
3.0834
3.08315
3.08292
3.08271
3.08253
3.08237
3.08223
3.08211
3.082
3.08191
3.08183
3.08176
3.0817
3.08166
3.08163
3.08161
3.0816
3.0816
3.08161
3.08163
3.08166
3.0817
3.08176
3.08183
3.08191
3.082
3.08211
3.08223
3.08237
3.08253
3.08271
3.08292
3.08315
3.0834
3.08369
3.08402
3.08439
3.08481
3.08529
3.08585
3.08649
3.08724
3.08812
3.08916
3.09041
3.09193
3.09379
3.09609
3.09897
3.10262
3.10728
3.11331
3.12111
3.13142
3.14641
3.17069
3.2028
3.11085
3.11121
3.11014
3.10807
3.10561
3.10309
3.10068
3.09845
3.09644
3.09465
3.09307
3.09169
3.09047
3.08941
3.08847
3.08765
3.08693
3.0863
3.08574
3.08524
3.0848
3.08441
3.08406
3.08375
3.08348
3.08323
3.08301
3.08281
3.08264
3.08249
3.08235
3.08223
3.08213
3.08204
3.08197
3.08191
3.08186
3.08182
3.0818
3.08179
3.08179
3.0818
3.08182
3.08186
3.08191
3.08197
3.08204
3.08213
3.08223
3.08235
3.08249
3.08264
3.08281
3.08301
3.08323
3.08348
3.08375
3.08406
3.08441
3.0848
3.08524
3.08574
3.0863
3.08693
3.08765
3.08847
3.08941
3.09047
3.09169
3.09307
3.09465
3.09644
3.09845
3.10068
3.10309
3.10561
3.10807
3.11014
3.11121
3.11085
3.09572
3.09765
3.09906
3.09918
3.09852
3.09751
3.09634
3.09511
3.09389
3.09272
3.09162
3.0906
3.08967
3.08882
3.08806
3.08737
3.08674
3.08618
3.08567
3.08522
3.08481
3.08444
3.08411
3.08381
3.08355
3.08331
3.08309
3.0829
3.08273
3.08257
3.08244
3.08232
3.08222
3.08213
3.08206
3.08199
3.08195
3.08191
3.08189
3.08187
3.08187
3.08189
3.08191
3.08195
3.08199
3.08206
3.08213
3.08222
3.08232
3.08244
3.08257
3.08273
3.0829
3.08309
3.08331
3.08355
3.08381
3.08411
3.08444
3.08481
3.08522
3.08567
3.08618
3.08674
3.08737
3.08806
3.08882
3.08967
3.0906
3.09162
3.09272
3.09389
3.09511
3.09634
3.09751
3.09852
3.09918
3.09906
3.09765
3.09572
3.089
3.09047
3.09172
3.09231
3.09242
3.09224
3.09186
3.09135
3.09076
3.09014
3.0895
3.08887
3.08826
3.08767
3.08712
3.0866
3.08612
3.08568
3.08527
3.08489
3.08454
3.08423
3.08394
3.08367
3.08343
3.08322
3.08302
3.08284
3.08268
3.08254
3.08241
3.0823
3.08221
3.08212
3.08205
3.082
3.08195
3.08192
3.08189
3.08188
3.08188
3.08189
3.08192
3.08195
3.082
3.08205
3.08212
3.08221
3.0823
3.08241
3.08254
3.08268
3.08284
3.08302
3.08322
3.08343
3.08367
3.08394
3.08423
3.08454
3.08489
3.08527
3.08568
3.08612
3.0866
3.08712
3.08767
3.08826
3.08887
3.0895
3.09014
3.09076
3.09135
3.09186
3.09224
3.09242
3.09231
3.09172
3.09047
3.089
3.08546
3.08648
3.08744
3.08806
3.08841
3.08854
3.08852
3.08837
3.08813
3.08784
3.08749
3.08713
3.08675
3.08638
3.086
3.08564
3.0853
3.08496
3.08465
3.08436
3.08408
3.08383
3.08359
3.08337
3.08317
3.08299
3.08282
3.08266
3.08252
3.0824
3.08229
3.08219
3.0821
3.08203
3.08196
3.08191
3.08187
3.08184
3.08182
3.08181
3.08181
3.08182
3.08184
3.08187
3.08191
3.08196
3.08203
3.0821
3.08219
3.08229
3.0824
3.08252
3.08266
3.08282
3.08299
3.08317
3.08337
3.08359
3.08383
3.08408
3.08436
3.08465
3.08496
3.0853
3.08564
3.086
3.08638
3.08675
3.08713
3.08749
3.08784
3.08813
3.08837
3.08852
3.08854
3.08841
3.08806
3.08744
3.08648
3.08546
3.08333
3.08405
3.08476
3.08529
3.08565
3.08587
3.08599
3.08601
3.08596
3.08585
3.08569
3.08551
3.0853
3.08507
3.08484
3.0846
3.08437
3.08414
3.08391
3.0837
3.0835
3.0833
3.08312
3.08295
3.08279
3.08264
3.0825
3.08238
3.08226
3.08216
3.08206
3.08198
3.08191
3.08184
3.08179
3.08174
3.08171
3.08168
3.08166
3.08166
3.08166
3.08166
3.08168
3.08171
3.08174
3.08179
3.08184
3.08191
3.08198
3.08206
3.08216
3.08226
3.08238
3.0825
3.08264
3.08279
3.08295
3.08312
3.0833
3.0835
3.0837
3.08391
3.08414
3.08437
3.0846
3.08484
3.08507
3.0853
3.08551
3.08569
3.08585
3.08596
3.08601
3.08599
3.08587
3.08565
3.08529
3.08476
3.08405
3.08333
3.08188
3.08239
3.08292
3.08334
3.08367
3.0839
3.08406
3.08416
3.0842
3.08419
3.08415
3.08407
3.08397
3.08384
3.08371
3.08357
3.08342
3.08327
3.08312
3.08298
3.08283
3.0827
3.08256
3.08244
3.08232
3.08221
3.0821
3.082
3.08191
3.08183
3.08176
3.08169
3.08163
3.08158
3.08154
3.0815
3.08147
3.08145
3.08144
3.08143
3.08143
3.08144
3.08145
3.08147
3.0815
3.08154
3.08158
3.08163
3.08169
3.08176
3.08183
3.08191
3.082
3.0821
3.08221
3.08232
3.08244
3.08256
3.0827
3.08283
3.08298
3.08312
3.08327
3.08342
3.08357
3.08371
3.08384
3.08397
3.08407
3.08415
3.08419
3.0842
3.08416
3.08406
3.0839
3.08367
3.08334
3.08292
3.08239
3.08188
3.0808
3.08118
3.08158
3.08192
3.08219
3.08241
3.08257
3.08269
3.08277
3.08282
3.08283
3.08282
3.08278
3.08273
3.08267
3.08259
3.08251
3.08242
3.08233
3.08224
3.08214
3.08205
3.08196
3.08187
3.08179
3.08171
3.08164
3.08157
3.0815
3.08144
3.08138
3.08133
3.08129
3.08125
3.08122
3.08119
3.08117
3.08115
3.08114
3.08114
3.08114
3.08114
3.08115
3.08117
3.08119
3.08122
3.08125
3.08129
3.08133
3.08138
3.08144
3.0815
3.08157
3.08164
3.08171
3.08179
3.08187
3.08196
3.08205
3.08214
3.08224
3.08233
3.08242
3.08251
3.08259
3.08267
3.08273
3.08278
3.08282
3.08283
3.08282
3.08277
3.08269
3.08257
3.08241
3.08219
3.08192
3.08158
3.08118
3.0808
3.07995
3.08024
3.08055
3.08082
3.08104
3.08123
3.08139
3.08151
3.0816
3.08167
3.08172
3.08174
3.08174
3.08174
3.08171
3.08168
3.08165
3.0816
3.08155
3.0815
3.08145
3.08139
3.08134
3.08128
3.08123
3.08118
3.08113
3.08108
3.08104
3.081
3.08096
3.08093
3.08089
3.08087
3.08084
3.08082
3.08081
3.0808
3.08079
3.08079
3.08079
3.08079
3.0808
3.08081
3.08082
3.08084
3.08087
3.08089
3.08093
3.08096
3.081
3.08104
3.08108
3.08113
3.08118
3.08123
3.08128
3.08134
3.08139
3.08145
3.0815
3.08155
3.0816
3.08165
3.08168
3.08171
3.08174
3.08174
3.08174
3.08172
3.08167
3.0816
3.08151
3.08139
3.08123
3.08104
3.08082
3.08055
3.08024
3.07995
3.07925
3.07947
3.07972
3.07993
3.08012
3.08028
3.08042
3.08053
3.08063
3.0807
3.08076
3.0808
3.08083
3.08085
3.08086
3.08085
3.08085
3.08083
3.08081
3.08079
3.08076
3.08074
3.08071
3.08068
3.08065
3.08062
3.0806
3.08057
3.08054
3.08052
3.0805
3.08048
3.08046
3.08044
3.08043
3.08041
3.0804
3.0804
3.08039
3.08039
3.08039
3.08039
3.0804
3.0804
3.08041
3.08043
3.08044
3.08046
3.08048
3.0805
3.08052
3.08054
3.08057
3.0806
3.08062
3.08065
3.08068
3.08071
3.08074
3.08076
3.08079
3.08081
3.08083
3.08085
3.08085
3.08086
3.08085
3.08083
3.0808
3.08076
3.0807
3.08063
3.08053
3.08042
3.08028
3.08012
3.07993
3.07972
3.07947
3.07925
3.07865
3.07883
3.07902
3.0792
3.07935
3.07949
3.0796
3.07971
3.0798
3.07987
3.07993
3.07998
3.08002
3.08006
3.08008
3.0801
3.08011
3.08011
3.08011
3.08011
3.08011
3.0801
3.08009
3.08008
3.08007
3.08006
3.08005
3.08004
3.08003
3.08002
3.08001
3.08
3.07999
3.07998
3.07997
3.07997
3.07996
3.07996
3.07996
3.07996
3.07996
3.07996
3.07996
3.07996
3.07997
3.07997
3.07998
3.07999
3.08
3.08001
3.08002
3.08003
3.08004
3.08005
3.08006
3.08007
3.08008
3.08009
3.0801
3.08011
3.08011
3.08011
3.08011
3.08011
3.0801
3.08008
3.08006
3.08002
3.07998
3.07993
3.07987
3.0798
3.07971
3.0796
3.07949
3.07935
3.0792
3.07902
3.07883
3.07865
3.07812
3.07827
3.07842
3.07856
3.07869
3.0788
3.07891
3.079
3.07908
3.07915
3.07921
3.07926
3.07931
3.07934
3.07938
3.0794
3.07942
3.07944
3.07946
3.07947
3.07948
3.07949
3.07949
3.0795
3.0795
3.0795
3.0795
3.0795
3.0795
3.0795
3.0795
3.0795
3.0795
3.0795
3.0795
3.0795
3.0795
3.0795
3.0795
3.0795
3.0795
3.0795
3.0795
3.0795
3.0795
3.0795
3.0795
3.0795
3.0795
3.0795
3.0795
3.0795
3.0795
3.0795
3.0795
3.0795
3.0795
3.07949
3.07949
3.07948
3.07947
3.07946
3.07944
3.07942
3.0794
3.07938
3.07934
3.07931
3.07926
3.07921
3.07915
3.07908
3.079
3.07891
3.0788
3.07869
3.07856
3.07842
3.07827
3.07812
3.07765
3.07776
3.07789
3.078
3.07811
3.0782
3.07829
3.07837
3.07844
3.0785
3.07856
3.07861
3.07866
3.0787
3.07873
3.07877
3.07879
3.07882
3.07884
3.07886
3.07888
3.0789
3.07891
3.07893
3.07894
3.07895
3.07896
3.07897
3.07898
3.07899
3.07899
3.079
3.079
3.07901
3.07901
3.07902
3.07902
3.07902
3.07902
3.07902
3.07902
3.07902
3.07902
3.07902
3.07902
3.07901
3.07901
3.079
3.079
3.07899
3.07899
3.07898
3.07897
3.07896
3.07895
3.07894
3.07893
3.07891
3.0789
3.07888
3.07886
3.07884
3.07882
3.07879
3.07877
3.07873
3.0787
3.07866
3.07861
3.07856
3.0785
3.07844
3.07837
3.07829
3.0782
3.07811
3.078
3.07789
3.07776
3.07765
3.07721
3.0773
3.0774
3.0775
3.07758
3.07766
3.07774
3.0778
3.07787
3.07792
3.07797
3.07802
3.07807
3.07811
3.07814
3.07818
3.07821
3.07824
3.07826
3.07829
3.07831
3.07834
3.07836
3.07838
3.0784
3.07841
3.07843
3.07844
3.07846
3.07847
3.07848
3.07849
3.0785
3.07851
3.07852
3.07852
3.07853
3.07853
3.07853
3.07854
3.07854
3.07853
3.07853
3.07853
3.07852
3.07852
3.07851
3.0785
3.07849
3.07848
3.07847
3.07846
3.07844
3.07843
3.07841
3.0784
3.07838
3.07836
3.07834
3.07831
3.07829
3.07826
3.07824
3.07821
3.07818
3.07814
3.07811
3.07807
3.07802
3.07797
3.07792
3.07787
3.0778
3.07774
3.07766
3.07758
3.0775
3.0774
3.0773
3.07721
3.07679
3.07687
3.07695
3.07703
3.0771
3.07717
3.07723
3.07729
3.07734
3.07739
3.07744
3.07748
3.07752
3.07756
3.0776
3.07763
3.07766
3.07769
3.07772
3.07775
3.07777
3.0778
3.07782
3.07785
3.07787
3.07789
3.07791
3.07793
3.07795
3.07796
3.07798
3.07799
3.078
3.07801
3.07802
3.07803
3.07804
3.07804
3.07804
3.07805
3.07805
3.07804
3.07804
3.07804
3.07803
3.07802
3.07801
3.078
3.07799
3.07798
3.07796
3.07795
3.07793
3.07791
3.07789
3.07787
3.07785
3.07782
3.0778
3.07777
3.07775
3.07772
3.07769
3.07766
3.07763
3.0776
3.07756
3.07752
3.07748
3.07744
3.07739
3.07734
3.07729
3.07723
3.07717
3.0771
3.07703
3.07695
3.07687
3.07679
3.0764
3.07646
3.07653
3.07659
3.07665
3.0767
3.07676
3.07681
3.07685
3.0769
3.07694
3.07698
3.07701
3.07705
3.07708
3.07711
3.07715
3.07718
3.0772
3.07723
3.07726
3.07729
3.07731
3.07734
3.07736
3.07738
3.0774
3.07742
3.07744
3.07746
3.07748
3.07749
3.07751
3.07752
3.07753
3.07754
3.07755
3.07755
3.07756
3.07756
3.07756
3.07756
3.07755
3.07755
3.07754
3.07753
3.07752
3.07751
3.07749
3.07748
3.07746
3.07744
3.07742
3.0774
3.07738
3.07736
3.07734
3.07731
3.07729
3.07726
3.07723
3.0772
3.07718
3.07715
3.07711
3.07708
3.07705
3.07701
3.07698
3.07694
3.0769
3.07685
3.07681
3.07676
3.0767
3.07665
3.07659
3.07653
3.07646
3.0764
3.07601
3.07606
3.07612
3.07617
3.07622
3.07627
3.07631
3.07635
3.07639
3.07643
3.07647
3.0765
3.07654
3.07657
3.0766
3.07663
3.07666
3.07669
3.07671
3.07674
3.07677
3.07679
3.07682
3.07684
3.07687
3.07689
3.07691
3.07693
3.07695
3.07697
3.07699
3.07701
3.07702
3.07703
3.07705
3.07705
3.07706
3.07707
3.07707
3.07707
3.07707
3.07707
3.07707
3.07706
3.07705
3.07705
3.07703
3.07702
3.07701
3.07699
3.07697
3.07695
3.07693
3.07691
3.07689
3.07687
3.07684
3.07682
3.07679
3.07677
3.07674
3.07671
3.07669
3.07666
3.07663
3.0766
3.07657
3.07654
3.0765
3.07647
3.07643
3.07639
3.07635
3.07631
3.07627
3.07622
3.07617
3.07612
3.07606
3.07601
3.07564
3.07568
3.07573
3.07577
3.07581
3.07585
3.07589
3.07592
3.07596
3.07599
3.07602
3.07605
3.07608
3.07611
3.07614
3.07616
3.07619
3.07622
3.07624
3.07627
3.07629
3.07632
3.07634
3.07637
3.07639
3.07641
3.07644
3.07646
3.07648
3.0765
3.07651
3.07653
3.07654
3.07656
3.07657
3.07658
3.07659
3.07659
3.0766
3.0766
3.0766
3.0766
3.07659
3.07659
3.07658
3.07657
3.07656
3.07654
3.07653
3.07651
3.0765
3.07648
3.07646
3.07644
3.07641
3.07639
3.07637
3.07634
3.07632
3.07629
3.07627
3.07624
3.07622
3.07619
3.07616
3.07614
3.07611
3.07608
3.07605
3.07602
3.07599
3.07596
3.07592
3.07589
3.07585
3.07581
3.07577
3.07573
3.07568
3.07564
3.07527
3.07531
3.07535
3.07538
3.07541
3.07545
3.07548
3.07551
3.07554
3.07556
3.07559
3.07562
3.07564
3.07567
3.07569
3.07572
3.07574
3.07577
3.07579
3.07581
3.07584
3.07586
3.07588
3.07591
3.07593
3.07595
3.07597
3.07599
3.07601
3.07603
3.07605
3.07606
3.07608
3.07609
3.0761
3.07611
3.07612
3.07612
3.07613
3.07613
3.07613
3.07613
3.07612
3.07612
3.07611
3.0761
3.07609
3.07608
3.07606
3.07605
3.07603
3.07601
3.07599
3.07597
3.07595
3.07593
3.07591
3.07588
3.07586
3.07584
3.07581
3.07579
3.07577
3.07574
3.07572
3.07569
3.07567
3.07564
3.07562
3.07559
3.07556
3.07554
3.07551
3.07548
3.07545
3.07541
3.07538
3.07535
3.07531
3.07527
3.07491
3.07494
3.07497
3.075
3.07503
3.07505
3.07508
3.07511
3.07513
3.07515
3.07518
3.0752
3.07522
3.07524
3.07527
3.07529
3.07531
3.07533
3.07535
3.07538
3.0754
3.07542
3.07544
3.07546
3.07548
3.0755
3.07552
3.07554
3.07556
3.07557
3.07559
3.07561
3.07562
3.07563
3.07564
3.07565
3.07566
3.07566
3.07567
3.07567
3.07567
3.07567
3.07566
3.07566
3.07565
3.07564
3.07563
3.07562
3.07561
3.07559
3.07557
3.07556
3.07554
3.07552
3.0755
3.07548
3.07546
3.07544
3.07542
3.0754
3.07538
3.07535
3.07533
3.07531
3.07529
3.07527
3.07524
3.07522
3.0752
3.07518
3.07515
3.07513
3.07511
3.07508
3.07505
3.07503
3.075
3.07497
3.07494
3.07491
3.07455
3.07458
3.0746
3.07463
3.07465
3.07467
3.07469
3.07471
3.07473
3.07475
3.07477
3.07479
3.07481
3.07483
3.07485
3.07487
3.07489
3.07491
3.07493
3.07495
3.07497
3.07499
3.07501
3.07503
3.07504
3.07506
3.07508
3.0751
3.07512
3.07513
3.07515
3.07516
3.07517
3.07518
3.07519
3.0752
3.07521
3.07521
3.07522
3.07522
3.07522
3.07522
3.07521
3.07521
3.0752
3.07519
3.07518
3.07517
3.07516
3.07515
3.07513
3.07512
3.0751
3.07508
3.07506
3.07504
3.07503
3.07501
3.07499
3.07497
3.07495
3.07493
3.07491
3.07489
3.07487
3.07485
3.07483
3.07481
3.07479
3.07477
3.07475
3.07473
3.07471
3.07469
3.07467
3.07465
3.07463
3.0746
3.07458
3.07455
3.0742
3.07422
3.07424
3.07426
3.07427
3.07429
3.07431
3.07433
3.07435
3.07436
3.07438
3.0744
3.07441
3.07443
3.07445
3.07446
3.07448
3.0745
3.07451
3.07453
3.07455
3.07457
3.07458
3.0746
3.07462
3.07464
3.07465
3.07467
3.07468
3.0747
3.07471
3.07472
3.07473
3.07474
3.07475
3.07476
3.07477
3.07477
3.07477
3.07478
3.07478
3.07477
3.07477
3.07477
3.07476
3.07475
3.07474
3.07473
3.07472
3.07471
3.0747
3.07468
3.07467
3.07465
3.07464
3.07462
3.0746
3.07458
3.07457
3.07455
3.07453
3.07451
3.0745
3.07448
3.07446
3.07445
3.07443
3.07441
3.0744
3.07438
3.07436
3.07435
3.07433
3.07431
3.07429
3.07427
3.07426
3.07424
3.07422
3.0742
3.07384
3.07386
3.07387
3.07389
3.0739
3.07392
3.07393
3.07395
3.07396
3.07398
3.07399
3.07401
3.07402
3.07403
3.07405
3.07406
3.07408
3.07409
3.07411
3.07412
3.07414
3.07416
3.07417
3.07419
3.0742
3.07422
3.07423
3.07424
3.07426
3.07427
3.07428
3.07429
3.0743
3.07431
3.07432
3.07433
3.07433
3.07434
3.07434
3.07434
3.07434
3.07434
3.07434
3.07433
3.07433
3.07432
3.07431
3.0743
3.07429
3.07428
3.07427
3.07426
3.07424
3.07423
3.07422
3.0742
3.07419
3.07417
3.07416
3.07414
3.07412
3.07411
3.07409
3.07408
3.07406
3.07405
3.07403
3.07402
3.07401
3.07399
3.07398
3.07396
3.07395
3.07393
3.07392
3.0739
3.07389
3.07387
3.07386
3.07384
3.07348
3.0735
3.07351
3.07352
3.07354
3.07355
3.07356
3.07357
3.07358
3.0736
3.07361
3.07362
3.07363
3.07365
3.07366
3.07367
3.07368
3.0737
3.07371
3.07372
3.07374
3.07375
3.07376
3.07378
3.07379
3.0738
3.07382
3.07383
3.07384
3.07385
3.07386
3.07387
3.07388
3.07389
3.0739
3.0739
3.07391
3.07391
3.07392
3.07392
3.07392
3.07392
3.07391
3.07391
3.0739
3.0739
3.07389
3.07388
3.07387
3.07386
3.07385
3.07384
3.07383
3.07382
3.0738
3.07379
3.07378
3.07376
3.07375
3.07374
3.07372
3.07371
3.0737
3.07368
3.07367
3.07366
3.07365
3.07363
3.07362
3.07361
3.0736
3.07358
3.07357
3.07356
3.07355
3.07354
3.07352
3.07351
3.0735
3.07348
3.07313
3.07314
3.07315
3.07316
3.07317
3.07318
3.07319
3.0732
3.07321
3.07322
3.07323
3.07324
3.07325
3.07326
3.07327
3.07328
3.07329
3.07331
3.07332
3.07333
3.07334
3.07335
3.07336
3.07338
3.07339
3.0734
3.07341
3.07342
3.07343
3.07344
3.07345
3.07346
3.07347
3.07348
3.07348
3.07349
3.07349
3.0735
3.0735
3.0735
3.0735
3.0735
3.0735
3.07349
3.07349
3.07348
3.07348
3.07347
3.07346
3.07345
3.07344
3.07343
3.07342
3.07341
3.0734
3.07339
3.07338
3.07336
3.07335
3.07334
3.07333
3.07332
3.07331
3.07329
3.07328
3.07327
3.07326
3.07325
3.07324
3.07323
3.07322
3.07321
3.0732
3.07319
3.07318
3.07317
3.07316
3.07315
3.07314
3.07313
3.07277
3.07278
3.07279
3.0728
3.0728
3.07281
3.07282
3.07283
3.07284
3.07285
3.07285
3.07286
3.07287
3.07288
3.07289
3.0729
3.07291
3.07292
3.07293
3.07294
3.07295
3.07296
3.07297
3.07298
3.07299
3.073
3.07301
3.07302
3.07303
3.07304
3.07305
3.07305
3.07306
3.07307
3.07307
3.07308
3.07308
3.07308
3.07309
3.07309
3.07309
3.07309
3.07308
3.07308
3.07308
3.07307
3.07307
3.07306
3.07305
3.07305
3.07304
3.07303
3.07302
3.07301
3.073
3.07299
3.07298
3.07297
3.07296
3.07295
3.07294
3.07293
3.07292
3.07291
3.0729
3.07289
3.07288
3.07287
3.07286
3.07285
3.07285
3.07284
3.07283
3.07282
3.07281
3.0728
3.0728
3.07279
3.07278
3.07277
3.07241
3.07242
3.07243
3.07243
3.07244
3.07245
3.07245
3.07246
3.07247
3.07247
3.07248
3.07249
3.0725
3.0725
3.07251
3.07252
3.07253
3.07254
3.07254
3.07255
3.07256
3.07257
3.07258
3.07259
3.0726
3.07261
3.07261
3.07262
3.07263
3.07264
3.07265
3.07265
3.07266
3.07266
3.07267
3.07267
3.07268
3.07268
3.07268
3.07268
3.07268
3.07268
3.07268
3.07268
3.07267
3.07267
3.07266
3.07266
3.07265
3.07265
3.07264
3.07263
3.07262
3.07261
3.07261
3.0726
3.07259
3.07258
3.07257
3.07256
3.07255
3.07254
3.07254
3.07253
3.07252
3.07251
3.0725
3.0725
3.07249
3.07248
3.07247
3.07247
3.07246
3.07245
3.07245
3.07244
3.07243
3.07243
3.07242
3.07241
3.07205
3.07206
3.07206
3.07207
3.07207
3.07208
3.07209
3.07209
3.0721
3.0721
3.07211
3.07211
3.07212
3.07213
3.07213
3.07214
3.07215
3.07215
3.07216
3.07217
3.07218
3.07218
3.07219
3.0722
3.07221
3.07222
3.07222
3.07223
3.07224
3.07224
3.07225
3.07226
3.07226
3.07227
3.07227
3.07227
3.07228
3.07228
3.07228
3.07228
3.07228
3.07228
3.07228
3.07228
3.07227
3.07227
3.07227
3.07226
3.07226
3.07225
3.07224
3.07224
3.07223
3.07222
3.07222
3.07221
3.0722
3.07219
3.07218
3.07218
3.07217
3.07216
3.07215
3.07215
3.07214
3.07213
3.07213
3.07212
3.07211
3.07211
3.0721
3.0721
3.07209
3.07209
3.07208
3.07207
3.07207
3.07206
3.07206
3.07205
3.07169
3.0717
3.0717
3.0717
3.07171
3.07171
3.07172
3.07172
3.07173
3.07173
3.07174
3.07174
3.07175
3.07175
3.07176
3.07176
3.07177
3.07178
3.07178
3.07179
3.0718
3.0718
3.07181
3.07182
3.07182
3.07183
3.07183
3.07184
3.07185
3.07185
3.07186
3.07186
3.07187
3.07187
3.07188
3.07188
3.07188
3.07188
3.07188
3.07189
3.07189
3.07188
3.07188
3.07188
3.07188
3.07188
3.07187
3.07187
3.07186
3.07186
3.07185
3.07185
3.07184
3.07183
3.07183
3.07182
3.07182
3.07181
3.0718
3.0718
3.07179
3.07178
3.07178
3.07177
3.07176
3.07176
3.07175
3.07175
3.07174
3.07174
3.07173
3.07173
3.07172
3.07172
3.07171
3.07171
3.0717
3.0717
3.0717
3.07169
3.07133
3.07133
3.07134
3.07134
3.07134
3.07135
3.07135
3.07136
3.07136
3.07136
3.07137
3.07137
3.07138
3.07138
3.07139
3.07139
3.07139
3.0714
3.07141
3.07141
3.07142
3.07142
3.07143
3.07143
3.07144
3.07144
3.07145
3.07146
3.07146
3.07147
3.07147
3.07147
3.07148
3.07148
3.07148
3.07149
3.07149
3.07149
3.07149
3.07149
3.07149
3.07149
3.07149
3.07149
3.07149
3.07148
3.07148
3.07148
3.07147
3.07147
3.07147
3.07146
3.07146
3.07145
3.07144
3.07144
3.07143
3.07143
3.07142
3.07142
3.07141
3.07141
3.0714
3.07139
3.07139
3.07139
3.07138
3.07138
3.07137
3.07137
3.07136
3.07136
3.07136
3.07135
3.07135
3.07134
3.07134
3.07134
3.07133
3.07133
3.07097
3.07097
3.07097
3.07098
3.07098
3.07098
3.07098
3.07099
3.07099
3.07099
3.071
3.071
3.071
3.07101
3.07101
3.07102
3.07102
3.07102
3.07103
3.07103
3.07104
3.07104
3.07105
3.07105
3.07106
3.07106
3.07107
3.07107
3.07108
3.07108
3.07108
3.07109
3.07109
3.07109
3.0711
3.0711
3.0711
3.0711
3.0711
3.0711
3.0711
3.0711
3.0711
3.0711
3.0711
3.0711
3.07109
3.07109
3.07109
3.07108
3.07108
3.07108
3.07107
3.07107
3.07106
3.07106
3.07105
3.07105
3.07104
3.07104
3.07103
3.07103
3.07102
3.07102
3.07102
3.07101
3.07101
3.071
3.071
3.071
3.07099
3.07099
3.07099
3.07098
3.07098
3.07098
3.07098
3.07097
3.07097
3.07097
3.07061
3.07061
3.07061
3.07061
3.07061
3.07062
3.07062
3.07062
3.07062
3.07063
3.07063
3.07063
3.07063
3.07064
3.07064
3.07064
3.07065
3.07065
3.07065
3.07066
3.07066
3.07067
3.07067
3.07067
3.07068
3.07068
3.07069
3.07069
3.07069
3.0707
3.0707
3.0707
3.07071
3.07071
3.07071
3.07071
3.07072
3.07072
3.07072
3.07072
3.07072
3.07072
3.07072
3.07072
3.07071
3.07071
3.07071
3.07071
3.0707
3.0707
3.0707
3.07069
3.07069
3.07069
3.07068
3.07068
3.07067
3.07067
3.07067
3.07066
3.07066
3.07065
3.07065
3.07065
3.07064
3.07064
3.07064
3.07063
3.07063
3.07063
3.07063
3.07062
3.07062
3.07062
3.07062
3.07061
3.07061
3.07061
3.07061
3.07061
3.07024
3.07024
3.07024
3.07024
3.07025
3.07025
3.07025
3.07025
3.07025
3.07026
3.07026
3.07026
3.07026
3.07027
3.07027
3.07027
3.07027
3.07028
3.07028
3.07028
3.07029
3.07029
3.07029
3.0703
3.0703
3.0703
3.07031
3.07031
3.07031
3.07032
3.07032
3.07032
3.07032
3.07033
3.07033
3.07033
3.07033
3.07033
3.07033
3.07033
3.07033
3.07033
3.07033
3.07033
3.07033
3.07033
3.07033
3.07032
3.07032
3.07032
3.07032
3.07031
3.07031
3.07031
3.0703
3.0703
3.0703
3.07029
3.07029
3.07029
3.07028
3.07028
3.07028
3.07027
3.07027
3.07027
3.07027
3.07026
3.07026
3.07026
3.07026
3.07025
3.07025
3.07025
3.07025
3.07025
3.07024
3.07024
3.07024
3.07024
3.06988
3.06988
3.06988
3.06988
3.06988
3.06988
3.06988
3.06988
3.06989
3.06989
3.06989
3.06989
3.06989
3.0699
3.0699
3.0699
3.0699
3.06991
3.06991
3.06991
3.06991
3.06992
3.06992
3.06992
3.06992
3.06993
3.06993
3.06993
3.06994
3.06994
3.06994
3.06994
3.06994
3.06995
3.06995
3.06995
3.06995
3.06995
3.06995
3.06995
3.06995
3.06995
3.06995
3.06995
3.06995
3.06995
3.06995
3.06994
3.06994
3.06994
3.06994
3.06994
3.06993
3.06993
3.06993
3.06992
3.06992
3.06992
3.06992
3.06991
3.06991
3.06991
3.06991
3.0699
3.0699
3.0699
3.0699
3.06989
3.06989
3.06989
3.06989
3.06989
3.06988
3.06988
3.06988
3.06988
3.06988
3.06988
3.06988
3.06988
3.06951
3.06951
3.06951
3.06951
3.06951
3.06951
3.06951
3.06952
3.06952
3.06952
3.06952
3.06952
3.06952
3.06952
3.06953
3.06953
3.06953
3.06953
3.06954
3.06954
3.06954
3.06954
3.06954
3.06955
3.06955
3.06955
3.06955
3.06956
3.06956
3.06956
3.06956
3.06956
3.06957
3.06957
3.06957
3.06957
3.06957
3.06957
3.06957
3.06957
3.06957
3.06957
3.06957
3.06957
3.06957
3.06957
3.06957
3.06957
3.06956
3.06956
3.06956
3.06956
3.06956
3.06955
3.06955
3.06955
3.06955
3.06954
3.06954
3.06954
3.06954
3.06954
3.06953
3.06953
3.06953
3.06953
3.06952
3.06952
3.06952
3.06952
3.06952
3.06952
3.06952
3.06951
3.06951
3.06951
3.06951
3.06951
3.06951
3.06951
3.06914
3.06914
3.06914
3.06914
3.06914
3.06915
3.06915
3.06915
3.06915
3.06915
3.06915
3.06915
3.06915
3.06915
3.06916
3.06916
3.06916
3.06916
3.06916
3.06916
3.06917
3.06917
3.06917
3.06917
3.06917
3.06918
3.06918
3.06918
3.06918
3.06918
3.06919
3.06919
3.06919
3.06919
3.06919
3.06919
3.06919
3.06919
3.06919
3.06919
3.06919
3.06919
3.06919
3.06919
3.06919
3.06919
3.06919
3.06919
3.06919
3.06919
3.06918
3.06918
3.06918
3.06918
3.06918
3.06917
3.06917
3.06917
3.06917
3.06917
3.06916
3.06916
3.06916
3.06916
3.06916
3.06916
3.06915
3.06915
3.06915
3.06915
3.06915
3.06915
3.06915
3.06915
3.06915
3.06914
3.06914
3.06914
3.06914
3.06914
3.06877
3.06877
3.06878
3.06878
3.06878
3.06878
3.06878
3.06878
3.06878
3.06878
3.06878
3.06878
3.06878
3.06878
3.06879
3.06879
3.06879
3.06879
3.06879
3.06879
3.06879
3.0688
3.0688
3.0688
3.0688
3.0688
3.0688
3.06881
3.06881
3.06881
3.06881
3.06881
3.06881
3.06881
3.06881
3.06882
3.06882
3.06882
3.06882
3.06882
3.06882
3.06882
3.06882
3.06882
3.06882
3.06881
3.06881
3.06881
3.06881
3.06881
3.06881
3.06881
3.06881
3.0688
3.0688
3.0688
3.0688
3.0688
3.0688
3.06879
3.06879
3.06879
3.06879
3.06879
3.06879
3.06879
3.06878
3.06878
3.06878
3.06878
3.06878
3.06878
3.06878
3.06878
3.06878
3.06878
3.06878
3.06878
3.06877
3.06877
3.06841
3.06841
3.06841
3.06841
3.06841
3.06841
3.06841
3.06841
3.06841
3.06841
3.06841
3.06841
3.06841
3.06841
3.06841
3.06842
3.06842
3.06842
3.06842
3.06842
3.06842
3.06842
3.06842
3.06843
3.06843
3.06843
3.06843
3.06843
3.06843
3.06843
3.06843
3.06844
3.06844
3.06844
3.06844
3.06844
3.06844
3.06844
3.06844
3.06844
3.06844
3.06844
3.06844
3.06844
3.06844
3.06844
3.06844
3.06844
3.06844
3.06843
3.06843
3.06843
3.06843
3.06843
3.06843
3.06843
3.06843
3.06842
3.06842
3.06842
3.06842
3.06842
3.06842
3.06842
3.06842
3.06841
3.06841
3.06841
3.06841
3.06841
3.06841
3.06841
3.06841
3.06841
3.06841
3.06841
3.06841
3.06841
3.06841
3.06841
3.06804
3.06804
3.06804
3.06804
3.06804
3.06804
3.06804
3.06804
3.06804
3.06804
3.06804
3.06804
3.06804
3.06804
3.06804
3.06804
3.06805
3.06805
3.06805
3.06805
3.06805
3.06805
3.06805
3.06805
3.06805
3.06806
3.06806
3.06806
3.06806
3.06806
3.06806
3.06806
3.06806
3.06806
3.06806
3.06806
3.06806
3.06806
3.06806
3.06807
3.06807
3.06806
3.06806
3.06806
3.06806
3.06806
3.06806
3.06806
3.06806
3.06806
3.06806
3.06806
3.06806
3.06806
3.06806
3.06805
3.06805
3.06805
3.06805
3.06805
3.06805
3.06805
3.06805
3.06805
3.06804
3.06804
3.06804
3.06804
3.06804
3.06804
3.06804
3.06804
3.06804
3.06804
3.06804
3.06804
3.06804
3.06804
3.06804
3.06804
3.06767
3.06767
3.06767
3.06767
3.06767
3.06767
3.06767
3.06767
3.06767
3.06767
3.06767
3.06767
3.06767
3.06767
3.06767
3.06767
3.06767
3.06768
3.06768
3.06768
3.06768
3.06768
3.06768
3.06768
3.06768
3.06768
3.06768
3.06768
3.06768
3.06769
3.06769
3.06769
3.06769
3.06769
3.06769
3.06769
3.06769
3.06769
3.06769
3.06769
3.06769
3.06769
3.06769
3.06769
3.06769
3.06769
3.06769
3.06769
3.06769
3.06769
3.06769
3.06768
3.06768
3.06768
3.06768
3.06768
3.06768
3.06768
3.06768
3.06768
3.06768
3.06768
3.06768
3.06767
3.06767
3.06767
3.06767
3.06767
3.06767
3.06767
3.06767
3.06767
3.06767
3.06767
3.06767
3.06767
3.06767
3.06767
3.06767
3.06767
3.0673
3.0673
3.0673
3.0673
3.0673
3.0673
3.0673
3.0673
3.0673
3.0673
3.0673
3.0673
3.0673
3.0673
3.0673
3.0673
3.0673
3.0673
3.0673
3.06731
3.06731
3.06731
3.06731
3.06731
3.06731
3.06731
3.06731
3.06731
3.06731
3.06731
3.06731
3.06731
3.06731
3.06731
3.06732
3.06732
3.06732
3.06732
3.06732
3.06732
3.06732
3.06732
3.06732
3.06732
3.06732
3.06732
3.06731
3.06731
3.06731
3.06731
3.06731
3.06731
3.06731
3.06731
3.06731
3.06731
3.06731
3.06731
3.06731
3.06731
3.06731
3.0673
3.0673
3.0673
3.0673
3.0673
3.0673
3.0673
3.0673
3.0673
3.0673
3.0673
3.0673
3.0673
3.0673
3.0673
3.0673
3.0673
3.0673
3.0673
3.06693
3.06693
3.06693
3.06693
3.06693
3.06693
3.06693
3.06693
3.06693
3.06693
3.06693
3.06693
3.06693
3.06693
3.06693
3.06693
3.06693
3.06693
3.06693
3.06693
3.06693
3.06693
3.06694
3.06694
3.06694
3.06694
3.06694
3.06694
3.06694
3.06694
3.06694
3.06694
3.06694
3.06694
3.06694
3.06694
3.06694
3.06694
3.06694
3.06694
3.06694
3.06694
3.06694
3.06694
3.06694
3.06694
3.06694
3.06694
3.06694
3.06694
3.06694
3.06694
3.06694
3.06694
3.06694
3.06694
3.06694
3.06694
3.06693
3.06693
3.06693
3.06693
3.06693
3.06693
3.06693
3.06693
3.06693
3.06693
3.06693
3.06693
3.06693
3.06693
3.06693
3.06693
3.06693
3.06693
3.06693
3.06693
3.06693
3.06693
3.06656
3.06656
3.06656
3.06656
3.06656
3.06656
3.06656
3.06656
3.06656
3.06656
3.06656
3.06656
3.06656
3.06656
3.06656
3.06656
3.06656
3.06656
3.06656
3.06656
3.06656
3.06656
3.06656
3.06656
3.06656
3.06656
3.06657
3.06657
3.06657
3.06657
3.06657
3.06657
3.06657
3.06657
3.06657
3.06657
3.06657
3.06657
3.06657
3.06657
3.06657
3.06657
3.06657
3.06657
3.06657
3.06657
3.06657
3.06657
3.06657
3.06657
3.06657
3.06657
3.06657
3.06657
3.06656
3.06656
3.06656
3.06656
3.06656
3.06656
3.06656
3.06656
3.06656
3.06656
3.06656
3.06656
3.06656
3.06656
3.06656
3.06656
3.06656
3.06656
3.06656
3.06656
3.06656
3.06656
3.06656
3.06656
3.06656
3.06656
3.06619
3.06619
3.06619
3.06619
3.06619
3.06619
3.06619
3.06619
3.06619
3.06619
3.06619
3.06619
3.06619
3.06619
3.06619
3.06619
3.06619
3.06619
3.06619
3.06619
3.06619
3.06619
3.06619
3.06619
3.06619
3.06619
3.06619
3.06619
3.06619
3.06619
3.06619
3.06619
3.0662
3.0662
3.0662
3.0662
3.0662
3.0662
3.0662
3.0662
3.0662
3.0662
3.0662
3.0662
3.0662
3.0662
3.0662
3.0662
3.06619
3.06619
3.06619
3.06619
3.06619
3.06619
3.06619
3.06619
3.06619
3.06619
3.06619
3.06619
3.06619
3.06619
3.06619
3.06619
3.06619
3.06619
3.06619
3.06619
3.06619
3.06619
3.06619
3.06619
3.06619
3.06619
3.06619
3.06619
3.06619
3.06619
3.06619
3.06619
3.06582
3.06582
3.06582
3.06582
3.06582
3.06582
3.06582
3.06582
3.06582
3.06582
3.06582
3.06582
3.06582
3.06582
3.06582
3.06582
3.06582
3.06582
3.06582
3.06582
3.06582
3.06582
3.06582
3.06582
3.06582
3.06582
3.06582
3.06582
3.06582
3.06582
3.06582
3.06582
3.06582
3.06582
3.06582
3.06582
3.06582
3.06582
3.06582
3.06582
3.06582
3.06582
3.06582
3.06582
3.06582
3.06582
3.06582
3.06582
3.06582
3.06582
3.06582
3.06582
3.06582
3.06582
3.06582
3.06582
3.06582
3.06582
3.06582
3.06582
3.06582
3.06582
3.06582
3.06582
3.06582
3.06582
3.06582
3.06582
3.06582
3.06582
3.06582
3.06582
3.06582
3.06582
3.06582
3.06582
3.06582
3.06582
3.06582
3.06582
3.06545
3.06545
3.06545
3.06545
3.06545
3.06545
3.06545
3.06545
3.06545
3.06545
3.06545
3.06545
3.06545
3.06545
3.06545
3.06545
3.06545
3.06545
3.06545
3.06545
3.06545
3.06545
3.06545
3.06545
3.06545
3.06545
3.06545
3.06545
3.06545
3.06545
3.06545
3.06545
3.06545
3.06545
3.06545
3.06545
3.06545
3.06545
3.06545
3.06545
3.06545
3.06545
3.06545
3.06545
3.06545
3.06545
3.06545
3.06545
3.06545
3.06545
3.06545
3.06545
3.06545
3.06545
3.06545
3.06545
3.06545
3.06545
3.06545
3.06545
3.06545
3.06545
3.06545
3.06545
3.06545
3.06545
3.06545
3.06545
3.06545
3.06545
3.06545
3.06545
3.06545
3.06545
3.06545
3.06545
3.06545
3.06545
3.06545
3.06545
3.06507
3.06507
3.06507
3.06507
3.06507
3.06507
3.06507
3.06507
3.06507
3.06507
3.06507
3.06507
3.06507
3.06507
3.06507
3.06508
3.06508
3.06508
3.06508
3.06508
3.06508
3.06508
3.06508
3.06508
3.06508
3.06508
3.06508
3.06508
3.06508
3.06508
3.06508
3.06508
3.06508
3.06508
3.06508
3.06508
3.06508
3.06508
3.06508