/*--------------------------------*- C++ -*----------------------------------*\
  =========                 |
  \\      /  F ield         | OpenFOAM: The Open Source CFD Toolbox
   \\    /   O peration     | Website:  https://openfoam.org
    \\  /    A nd           | Version:  11
     \\/     M anipulation  |
\*---------------------------------------------------------------------------*/
FoamFile
{
    format      ascii;
    class       volScalarField;
    location    "348";
    object      p;
}
// * * * * * * * * * * * * * * * * * * * * * * * * * * * * * * * * * * * * * //

dimensions      [0 2 -2 0 0 0 0];

internalField   nonuniform List<scalar> 
332800
(
3.01609
2.9729
2.94261
2.92529
2.91389
2.90555
2.89935
2.8947
2.89117
2.88844
2.88629
2.88457
2.88317
2.88201
2.88104
2.88023
2.87953
2.87892
2.8784
2.87794
2.87753
2.87718
2.87686
2.87658
2.87633
2.8761
2.8759
2.87573
2.87557
2.87543
2.87531
2.8752
2.87511
2.87503
2.87496
2.87491
2.87486
2.87483
2.87481
2.8748
2.8748
2.87481
2.87483
2.87486
2.87491
2.87496
2.87503
2.87511
2.8752
2.87531
2.87543
2.87557
2.87573
2.8759
2.8761
2.87633
2.87658
2.87686
2.87718
2.87753
2.87794
2.8784
2.87892
2.87953
2.88023
2.88104
2.88201
2.88317
2.88457
2.88629
2.88844
2.89117
2.8947
2.89935
2.90555
2.91389
2.92529
2.94261
2.9729
3.01609
2.91933
2.91673
2.91264
2.90808
2.90366
2.89963
2.8961
2.89308
2.89052
2.88835
2.88652
2.88497
2.88366
2.88253
2.88156
2.88073
2.88
2.87937
2.87881
2.87832
2.87789
2.87751
2.87717
2.87686
2.87659
2.87635
2.87614
2.87595
2.87578
2.87563
2.8755
2.87538
2.87528
2.8752
2.87513
2.87507
2.87502
2.87499
2.87496
2.87495
2.87495
2.87496
2.87499
2.87502
2.87507
2.87513
2.8752
2.87528
2.87538
2.8755
2.87563
2.87578
2.87595
2.87614
2.87635
2.87659
2.87686
2.87717
2.87751
2.87789
2.87832
2.87881
2.87937
2.88
2.88073
2.88156
2.88253
2.88366
2.88497
2.88652
2.88835
2.89052
2.89308
2.8961
2.89963
2.90366
2.90808
2.91264
2.91673
2.91933
2.89555
2.89764
2.89869
2.89796
2.89632
2.8944
2.89244
2.89055
2.88879
2.8872
2.88578
2.88451
2.88339
2.8824
2.88153
2.88076
2.88007
2.87947
2.87893
2.87845
2.87802
2.87764
2.8773
2.877
2.87673
2.87648
2.87627
2.87607
2.8759
2.87575
2.87561
2.87549
2.87539
2.8753
2.87523
2.87517
2.87512
2.87509
2.87506
2.87505
2.87505
2.87506
2.87509
2.87512
2.87517
2.87523
2.8753
2.87539
2.87549
2.87561
2.87575
2.8759
2.87607
2.87627
2.87648
2.87673
2.877
2.8773
2.87764
2.87802
2.87845
2.87893
2.87947
2.88007
2.88076
2.88153
2.8824
2.88339
2.88451
2.88578
2.8872
2.88879
2.89055
2.89244
2.8944
2.89632
2.89796
2.89869
2.89764
2.89555
2.88681
2.88878
2.89024
2.89058
2.89019
2.88944
2.88849
2.88745
2.88638
2.88534
2.88434
2.88341
2.88255
2.88176
2.88104
2.88039
2.8798
2.87927
2.87879
2.87835
2.87796
2.8776
2.87728
2.87699
2.87673
2.8765
2.87629
2.8761
2.87593
2.87578
2.87565
2.87553
2.87543
2.87535
2.87527
2.87521
2.87517
2.87513
2.87511
2.87509
2.87509
2.87511
2.87513
2.87517
2.87521
2.87527
2.87535
2.87543
2.87553
2.87565
2.87578
2.87593
2.8761
2.87629
2.8765
2.87673
2.87699
2.87728
2.8776
2.87796
2.87835
2.87879
2.87927
2.8798
2.88039
2.88104
2.88176
2.88255
2.88341
2.88434
2.88534
2.88638
2.88745
2.88849
2.88944
2.89019
2.89058
2.89024
2.88878
2.88681
2.88197
2.88349
2.88479
2.88544
2.8856
2.88546
2.8851
2.88459
2.884
2.88337
2.88272
2.88208
2.88146
2.88087
2.88032
2.8798
2.87932
2.87887
2.87846
2.87808
2.87774
2.87742
2.87713
2.87687
2.87663
2.87642
2.87622
2.87605
2.87589
2.87575
2.87562
2.87551
2.87542
2.87533
2.87526
2.8752
2.87516
2.87513
2.8751
2.87509
2.87509
2.8751
2.87513
2.87516
2.8752
2.87526
2.87533
2.87542
2.87551
2.87562
2.87575
2.87589
2.87605
2.87622
2.87642
2.87663
2.87687
2.87713
2.87742
2.87774
2.87808
2.87846
2.87887
2.87932
2.8798
2.88032
2.88087
2.88146
2.88208
2.88272
2.88337
2.884
2.88459
2.8851
2.88546
2.8856
2.88544
2.88479
2.88349
2.88197
2.87913
2.88025
2.88129
2.88194
2.88229
2.88241
2.88235
2.88216
2.88187
2.88152
2.88112
2.88071
2.88028
2.87986
2.87945
2.87906
2.87868
2.87833
2.878
2.87768
2.87739
2.87713
2.87688
2.87665
2.87644
2.87625
2.87607
2.87592
2.87577
2.87564
2.87553
2.87543
2.87534
2.87526
2.8752
2.87514
2.8751
2.87507
2.87505
2.87504
2.87504
2.87505
2.87507
2.8751
2.87514
2.8752
2.87526
2.87534
2.87543
2.87553
2.87564
2.87577
2.87592
2.87607
2.87625
2.87644
2.87665
2.87688
2.87713
2.87739
2.87768
2.878
2.87833
2.87868
2.87906
2.87945
2.87986
2.88028
2.88071
2.88112
2.88152
2.88187
2.88216
2.88235
2.88241
2.88229
2.88194
2.88129
2.88025
2.87913
2.87725
2.87808
2.87889
2.87947
2.87985
2.88007
2.88016
2.88014
2.88003
2.87986
2.87964
2.87938
2.87911
2.87883
2.87854
2.87825
2.87797
2.8777
2.87744
2.8772
2.87696
2.87674
2.87654
2.87634
2.87617
2.876
2.87585
2.87572
2.87559
2.87548
2.87538
2.87529
2.87521
2.87514
2.87508
2.87503
2.87499
2.87497
2.87495
2.87494
2.87494
2.87495
2.87497
2.87499
2.87503
2.87508
2.87514
2.87521
2.87529
2.87538
2.87548
2.87559
2.87572
2.87585
2.876
2.87617
2.87634
2.87654
2.87674
2.87696
2.8772
2.87744
2.8777
2.87797
2.87825
2.87854
2.87883
2.87911
2.87938
2.87964
2.87986
2.88003
2.88014
2.88016
2.88007
2.87985
2.87947
2.87889
2.87808
2.87725
2.87589
2.87653
2.87716
2.87765
2.87801
2.87825
2.87841
2.87847
2.87847
2.87841
2.87831
2.87817
2.878
2.87782
2.87763
2.87743
2.87723
2.87703
2.87684
2.87665
2.87647
2.8763
2.87613
2.87598
2.87583
2.8757
2.87557
2.87546
2.87535
2.87526
2.87517
2.87509
2.87502
2.87496
2.87491
2.87487
2.87484
2.87481
2.8748
2.87479
2.87479
2.8748
2.87481
2.87484
2.87487
2.87491
2.87496
2.87502
2.87509
2.87517
2.87526
2.87535
2.87546
2.87557
2.8757
2.87583
2.87598
2.87613
2.8763
2.87647
2.87665
2.87684
2.87703
2.87723
2.87743
2.87763
2.87782
2.878
2.87817
2.87831
2.87841
2.87847
2.87847
2.87841
2.87825
2.87801
2.87765
2.87716
2.87653
2.87589
2.87486
2.87535
2.87586
2.87626
2.87658
2.87682
2.87699
2.8771
2.87716
2.87716
2.87713
2.87707
2.87698
2.87688
2.87676
2.87663
2.87649
2.87635
2.87621
2.87608
2.87594
2.87581
2.87568
2.87556
2.87545
2.87534
2.87524
2.87515
2.87506
2.87499
2.87491
2.87485
2.87479
2.87474
2.8747
2.87467
2.87464
2.87462
2.8746
2.8746
2.8746
2.8746
2.87462
2.87464
2.87467
2.8747
2.87474
2.87479
2.87485
2.87491
2.87499
2.87506
2.87515
2.87524
2.87534
2.87545
2.87556
2.87568
2.87581
2.87594
2.87608
2.87621
2.87635
2.87649
2.87663
2.87676
2.87688
2.87698
2.87707
2.87713
2.87716
2.87716
2.8771
2.87699
2.87682
2.87658
2.87626
2.87586
2.87535
2.87486
2.87403
2.87442
2.87483
2.87517
2.87544
2.87566
2.87584
2.87596
2.87604
2.87609
2.8761
2.87609
2.87605
2.876
2.87593
2.87586
2.87577
2.87568
2.87559
2.87549
2.87539
2.8753
2.87521
2.87512
2.87503
2.87495
2.87488
2.8748
2.87474
2.87467
2.87462
2.87457
2.87452
2.87448
2.87445
2.87442
2.8744
2.87438
2.87437
2.87437
2.87437
2.87437
2.87438
2.8744
2.87442
2.87445
2.87448
2.87452
2.87457
2.87462
2.87467
2.87474
2.8748
2.87488
2.87495
2.87503
2.87512
2.87521
2.8753
2.87539
2.87549
2.87559
2.87568
2.87577
2.87586
2.87593
2.876
2.87605
2.87609
2.8761
2.87609
2.87604
2.87596
2.87584
2.87566
2.87544
2.87517
2.87483
2.87442
2.87403
2.87334
2.87366
2.87399
2.87427
2.87451
2.87471
2.87487
2.875
2.87509
2.87516
2.8752
2.87522
2.87522
2.8752
2.87517
2.87513
2.87508
2.87503
2.87497
2.87491
2.87485
2.87478
2.87472
2.87466
2.8746
2.87454
2.87448
2.87443
2.87438
2.87433
2.87429
2.87425
2.87422
2.87419
2.87416
2.87414
2.87412
2.87411
2.8741
2.8741
2.8741
2.8741
2.87411
2.87412
2.87414
2.87416
2.87419
2.87422
2.87425
2.87429
2.87433
2.87438
2.87443
2.87448
2.87454
2.8746
2.87466
2.87472
2.87478
2.87485
2.87491
2.87497
2.87503
2.87508
2.87513
2.87517
2.8752
2.87522
2.87522
2.8752
2.87516
2.87509
2.875
2.87487
2.87471
2.87451
2.87427
2.87399
2.87366
2.87334
2.87276
2.87302
2.87329
2.87353
2.87373
2.87391
2.87406
2.87418
2.87427
2.87435
2.8744
2.87444
2.87446
2.87447
2.87447
2.87445
2.87443
2.87441
2.87438
2.87434
2.8743
2.87426
2.87422
2.87418
2.87414
2.87411
2.87407
2.87403
2.874
2.87397
2.87394
2.87391
2.87389
2.87386
2.87385
2.87383
2.87382
2.87381
2.8738
2.8738
2.8738
2.8738
2.87381
2.87382
2.87383
2.87385
2.87386
2.87389
2.87391
2.87394
2.87397
2.874
2.87403
2.87407
2.87411
2.87414
2.87418
2.87422
2.87426
2.8743
2.87434
2.87438
2.87441
2.87443
2.87445
2.87447
2.87447
2.87446
2.87444
2.8744
2.87435
2.87427
2.87418
2.87406
2.87391
2.87373
2.87353
2.87329
2.87302
2.87276
2.87225
2.87246
2.87269
2.87289
2.87306
2.87322
2.87335
2.87346
2.87356
2.87364
2.8737
2.87375
2.87378
2.8738
2.87382
2.87382
2.87382
2.87382
2.87381
2.87379
2.87377
2.87375
2.87373
2.87371
2.87369
2.87367
2.87364
2.87362
2.8736
2.87358
2.87356
2.87355
2.87353
2.87352
2.8735
2.87349
2.87349
2.87348
2.87348
2.87347
2.87347
2.87348
2.87348
2.87349
2.87349
2.8735
2.87352
2.87353
2.87355
2.87356
2.87358
2.8736
2.87362
2.87364
2.87367
2.87369
2.87371
2.87373
2.87375
2.87377
2.87379
2.87381
2.87382
2.87382
2.87382
2.87382
2.8738
2.87378
2.87375
2.8737
2.87364
2.87356
2.87346
2.87335
2.87322
2.87306
2.87289
2.87269
2.87246
2.87225
2.8718
2.87197
2.87216
2.87233
2.87248
2.87262
2.87273
2.87284
2.87293
2.873
2.87307
2.87312
2.87316
2.87319
2.87322
2.87324
2.87325
2.87326
2.87326
2.87326
2.87326
2.87326
2.87325
2.87324
2.87323
2.87322
2.87321
2.8732
2.87319
2.87318
2.87318
2.87317
2.87316
2.87315
2.87315
2.87314
2.87314
2.87313
2.87313
2.87313
2.87313
2.87313
2.87313
2.87314
2.87314
2.87315
2.87315
2.87316
2.87317
2.87318
2.87318
2.87319
2.8732
2.87321
2.87322
2.87323
2.87324
2.87325
2.87326
2.87326
2.87326
2.87326
2.87326
2.87325
2.87324
2.87322
2.87319
2.87316
2.87312
2.87307
2.873
2.87293
2.87284
2.87273
2.87262
2.87248
2.87233
2.87216
2.87197
2.8718
2.87139
2.87153
2.87169
2.87184
2.87196
2.87208
2.87219
2.87228
2.87236
2.87243
2.8725
2.87255
2.87259
2.87263
2.87266
2.87269
2.87271
2.87273
2.87275
2.87276
2.87277
2.87277
2.87278
2.87278
2.87278
2.87278
2.87278
2.87278
2.87278
2.87278
2.87278
2.87278
2.87278
2.87277
2.87277
2.87277
2.87277
2.87277
2.87277
2.87277
2.87277
2.87277
2.87277
2.87277
2.87277
2.87277
2.87277
2.87278
2.87278
2.87278
2.87278
2.87278
2.87278
2.87278
2.87278
2.87278
2.87278
2.87278
2.87277
2.87277
2.87276
2.87275
2.87273
2.87271
2.87269
2.87266
2.87263
2.87259
2.87255
2.8725
2.87243
2.87236
2.87228
2.87219
2.87208
2.87196
2.87184
2.87169
2.87153
2.87139
2.87101
2.87113
2.87126
2.87139
2.8715
2.8716
2.87169
2.87177
2.87185
2.87191
2.87197
2.87203
2.87207
2.87211
2.87215
2.87218
2.87221
2.87223
2.87225
2.87227
2.87229
2.8723
2.87232
2.87233
2.87234
2.87235
2.87235
2.87236
2.87237
2.87237
2.87238
2.87238
2.87239
2.87239
2.87239
2.87239
2.87239
2.8724
2.8724
2.8724
2.8724
2.8724
2.8724
2.87239
2.87239
2.87239
2.87239
2.87239
2.87238
2.87238
2.87237
2.87237
2.87236
2.87235
2.87235
2.87234
2.87233
2.87232
2.8723
2.87229
2.87227
2.87225
2.87223
2.87221
2.87218
2.87215
2.87211
2.87207
2.87203
2.87197
2.87191
2.87185
2.87177
2.87169
2.8716
2.8715
2.87139
2.87126
2.87113
2.87101
2.87065
2.87075
2.87087
2.87097
2.87107
2.87116
2.87124
2.87131
2.87138
2.87144
2.87149
2.87155
2.87159
2.87163
2.87167
2.8717
2.87173
2.87176
2.87179
2.87181
2.87183
2.87185
2.87187
2.87189
2.8719
2.87192
2.87193
2.87194
2.87196
2.87197
2.87198
2.87198
2.87199
2.872
2.872
2.87201
2.87201
2.87201
2.87202
2.87202
2.87202
2.87202
2.87201
2.87201
2.87201
2.872
2.872
2.87199
2.87198
2.87198
2.87197
2.87196
2.87194
2.87193
2.87192
2.8719
2.87189
2.87187
2.87185
2.87183
2.87181
2.87179
2.87176
2.87173
2.8717
2.87167
2.87163
2.87159
2.87155
2.87149
2.87144
2.87138
2.87131
2.87124
2.87116
2.87107
2.87097
2.87087
2.87075
2.87065
2.87031
2.8704
2.8705
2.87059
2.87067
2.87075
2.87082
2.87088
2.87094
2.871
2.87105
2.8711
2.87114
2.87118
2.87122
2.87125
2.87128
2.87131
2.87134
2.87137
2.87139
2.87142
2.87144
2.87146
2.87148
2.8715
2.87152
2.87153
2.87155
2.87156
2.87158
2.87159
2.8716
2.87161
2.87161
2.87162
2.87163
2.87163
2.87163
2.87163
2.87163
2.87163
2.87163
2.87163
2.87162
2.87161
2.87161
2.8716
2.87159
2.87158
2.87156
2.87155
2.87153
2.87152
2.8715
2.87148
2.87146
2.87144
2.87142
2.87139
2.87137
2.87134
2.87131
2.87128
2.87125
2.87122
2.87118
2.87114
2.8711
2.87105
2.871
2.87094
2.87088
2.87082
2.87075
2.87067
2.87059
2.8705
2.8704
2.87031
2.86999
2.87007
2.87015
2.87022
2.87029
2.87036
2.87042
2.87048
2.87053
2.87059
2.87063
2.87068
2.87072
2.87076
2.87079
2.87083
2.87086
2.87089
2.87092
2.87095
2.87097
2.871
2.87102
2.87105
2.87107
2.87109
2.87111
2.87113
2.87115
2.87116
2.87118
2.87119
2.8712
2.87122
2.87122
2.87123
2.87124
2.87124
2.87125
2.87125
2.87125
2.87125
2.87124
2.87124
2.87123
2.87122
2.87122
2.8712
2.87119
2.87118
2.87116
2.87115
2.87113
2.87111
2.87109
2.87107
2.87105
2.87102
2.871
2.87097
2.87095
2.87092
2.87089
2.87086
2.87083
2.87079
2.87076
2.87072
2.87068
2.87063
2.87059
2.87053
2.87048
2.87042
2.87036
2.87029
2.87022
2.87015
2.87007
2.86999
2.86968
2.86974
2.86981
2.86988
2.86994
2.87
2.87005
2.8701
2.87015
2.8702
2.87024
2.87028
2.87032
2.87035
2.87039
2.87042
2.87045
2.87048
2.87051
2.87054
2.87057
2.87059
2.87062
2.87064
2.87067
2.87069
2.87071
2.87073
2.87075
2.87077
2.87079
2.8708
2.87081
2.87083
2.87084
2.87085
2.87085
2.87086
2.87086
2.87086
2.87086
2.87086
2.87086
2.87085
2.87085
2.87084
2.87083
2.87081
2.8708
2.87079
2.87077
2.87075
2.87073
2.87071
2.87069
2.87067
2.87064
2.87062
2.87059
2.87057
2.87054
2.87051
2.87048
2.87045
2.87042
2.87039
2.87035
2.87032
2.87028
2.87024
2.8702
2.87015
2.8701
2.87005
2.87
2.86994
2.86988
2.86981
2.86974
2.86968
2.86938
2.86943
2.86949
2.86955
2.8696
2.86965
2.8697
2.86974
2.86978
2.86982
2.86986
2.8699
2.86993
2.86997
2.87
2.87003
2.87006
2.87009
2.87012
2.87015
2.87017
2.8702
2.87023
2.87025
2.87028
2.8703
2.87032
2.87034
2.87036
2.87038
2.8704
2.87042
2.87043
2.87044
2.87045
2.87046
2.87047
2.87048
2.87048
2.87048
2.87048
2.87048
2.87048
2.87047
2.87046
2.87045
2.87044
2.87043
2.87042
2.8704
2.87038
2.87036
2.87034
2.87032
2.8703
2.87028
2.87025
2.87023
2.8702
2.87017
2.87015
2.87012
2.87009
2.87006
2.87003
2.87
2.86997
2.86993
2.8699
2.86986
2.86982
2.86978
2.86974
2.8697
2.86965
2.8696
2.86955
2.86949
2.86943
2.86938
2.86908
2.86913
2.86918
2.86923
2.86927
2.86931
2.86936
2.8694
2.86943
2.86947
2.8695
2.86954
2.86957
2.8696
2.86963
2.86966
2.86969
2.86971
2.86974
2.86977
2.8698
2.86982
2.86985
2.86987
2.8699
2.86992
2.86994
2.86996
2.86998
2.87
2.87002
2.87004
2.87005
2.87006
2.87008
2.87008
2.87009
2.8701
2.8701
2.8701
2.8701
2.8701
2.8701
2.87009
2.87008
2.87008
2.87006
2.87005
2.87004
2.87002
2.87
2.86998
2.86996
2.86994
2.86992
2.8699
2.86987
2.86985
2.86982
2.8698
2.86977
2.86974
2.86971
2.86969
2.86966
2.86963
2.8696
2.86957
2.86954
2.8695
2.86947
2.86943
2.8694
2.86936
2.86931
2.86927
2.86923
2.86918
2.86913
2.86908
2.86879
2.86883
2.86887
2.86891
2.86895
2.86899
2.86903
2.86906
2.86909
2.86913
2.86916
2.86919
2.86922
2.86924
2.86927
2.8693
2.86932
2.86935
2.86938
2.8694
2.86943
2.86945
2.86948
2.8695
2.86952
2.86955
2.86957
2.86959
2.86961
2.86963
2.86965
2.86966
2.86968
2.86969
2.8697
2.86971
2.86972
2.86973
2.86973
2.86973
2.86973
2.86973
2.86973
2.86972
2.86971
2.8697
2.86969
2.86968
2.86966
2.86965
2.86963
2.86961
2.86959
2.86957
2.86955
2.86952
2.8695
2.86948
2.86945
2.86943
2.8694
2.86938
2.86935
2.86932
2.8693
2.86927
2.86924
2.86922
2.86919
2.86916
2.86913
2.86909
2.86906
2.86903
2.86899
2.86895
2.86891
2.86887
2.86883
2.86879
2.8685
2.86854
2.86857
2.86861
2.86864
2.86868
2.86871
2.86874
2.86877
2.86879
2.86882
2.86885
2.86887
2.8689
2.86892
2.86895
2.86897
2.869
2.86902
2.86905
2.86907
2.86909
2.86912
2.86914
2.86916
2.86918
2.86921
2.86923
2.86924
2.86926
2.86928
2.8693
2.86931
2.86932
2.86933
2.86934
2.86935
2.86936
2.86936
2.86936
2.86936
2.86936
2.86936
2.86935
2.86934
2.86933
2.86932
2.86931
2.8693
2.86928
2.86926
2.86924
2.86923
2.86921
2.86918
2.86916
2.86914
2.86912
2.86909
2.86907
2.86905
2.86902
2.869
2.86897
2.86895
2.86892
2.8689
2.86887
2.86885
2.86882
2.86879
2.86877
2.86874
2.86871
2.86868
2.86864
2.86861
2.86857
2.86854
2.8685
2.86822
2.86825
2.86828
2.86831
2.86834
2.86837
2.86839
2.86842
2.86845
2.86847
2.86849
2.86852
2.86854
2.86856
2.86859
2.86861
2.86863
2.86865
2.86868
2.8687
2.86872
2.86874
2.86877
2.86879
2.86881
2.86883
2.86885
2.86887
2.86889
2.8689
2.86892
2.86894
2.86895
2.86896
2.86897
2.86898
2.86899
2.86899
2.869
2.869
2.869
2.869
2.86899
2.86899
2.86898
2.86897
2.86896
2.86895
2.86894
2.86892
2.8689
2.86889
2.86887
2.86885
2.86883
2.86881
2.86879
2.86877
2.86874
2.86872
2.8687
2.86868
2.86865
2.86863
2.86861
2.86859
2.86856
2.86854
2.86852
2.86849
2.86847
2.86845
2.86842
2.86839
2.86837
2.86834
2.86831
2.86828
2.86825
2.86822
2.86794
2.86796
2.86799
2.86801
2.86804
2.86806
2.86809
2.86811
2.86813
2.86815
2.86817
2.8682
2.86822
2.86824
2.86826
2.86828
2.8683
2.86832
2.86834
2.86836
2.86838
2.8684
2.86842
2.86844
2.86846
2.86848
2.8685
2.86852
2.86854
2.86855
2.86857
2.86858
2.86859
2.86861
2.86862
2.86863
2.86863
2.86864
2.86864
2.86864
2.86864
2.86864
2.86864
2.86863
2.86863
2.86862
2.86861
2.86859
2.86858
2.86857
2.86855
2.86854
2.86852
2.8685
2.86848
2.86846
2.86844
2.86842
2.8684
2.86838
2.86836
2.86834
2.86832
2.8683
2.86828
2.86826
2.86824
2.86822
2.8682
2.86817
2.86815
2.86813
2.86811
2.86809
2.86806
2.86804
2.86801
2.86799
2.86796
2.86794
2.86766
2.86768
2.8677
2.86772
2.86774
2.86776
2.86778
2.8678
2.86782
2.86784
2.86786
2.86788
2.8679
2.86792
2.86794
2.86795
2.86797
2.86799
2.86801
2.86803
2.86805
2.86807
2.86809
2.8681
2.86812
2.86814
2.86816
2.86817
2.86819
2.86821
2.86822
2.86823
2.86825
2.86826
2.86827
2.86827
2.86828
2.86829
2.86829
2.86829
2.86829
2.86829
2.86829
2.86828
2.86827
2.86827
2.86826
2.86825
2.86823
2.86822
2.86821
2.86819
2.86817
2.86816
2.86814
2.86812
2.8681
2.86809
2.86807
2.86805
2.86803
2.86801
2.86799
2.86797
2.86795
2.86794
2.86792
2.8679
2.86788
2.86786
2.86784
2.86782
2.8678
2.86778
2.86776
2.86774
2.86772
2.8677
2.86768
2.86766
2.86737
2.86739
2.86741
2.86743
2.86745
2.86747
2.86748
2.8675
2.86752
2.86754
2.86755
2.86757
2.86759
2.8676
2.86762
2.86764
2.86765
2.86767
2.86769
2.8677
2.86772
2.86774
2.86776
2.86777
2.86779
2.86781
2.86782
2.86784
2.86785
2.86787
2.86788
2.86789
2.8679
2.86791
2.86792
2.86793
2.86794
2.86794
2.86794
2.86795
2.86795
2.86794
2.86794
2.86794
2.86793
2.86792
2.86791
2.8679
2.86789
2.86788
2.86787
2.86785
2.86784
2.86782
2.86781
2.86779
2.86777
2.86776
2.86774
2.86772
2.8677
2.86769
2.86767
2.86765
2.86764
2.86762
2.8676
2.86759
2.86757
2.86755
2.86754
2.86752
2.8675
2.86748
2.86747
2.86745
2.86743
2.86741
2.86739
2.86737
2.8671
2.86711
2.86713
2.86714
2.86716
2.86717
2.86719
2.8672
2.86722
2.86723
2.86725
2.86726
2.86728
2.86729
2.86731
2.86732
2.86734
2.86735
2.86737
2.86738
2.8674
2.86741
2.86743
2.86745
2.86746
2.86748
2.86749
2.86751
2.86752
2.86753
2.86754
2.86756
2.86757
2.86758
2.86758
2.86759
2.8676
2.8676
2.8676
2.8676
2.8676
2.8676
2.8676
2.8676
2.86759
2.86758
2.86758
2.86757
2.86756
2.86754
2.86753
2.86752
2.86751
2.86749
2.86748
2.86746
2.86745
2.86743
2.86741
2.8674
2.86738
2.86737
2.86735
2.86734
2.86732
2.86731
2.86729
2.86728
2.86726
2.86725
2.86723
2.86722
2.8672
2.86719
2.86717
2.86716
2.86714
2.86713
2.86711
2.8671
2.86682
2.86683
2.86684
2.86686
2.86687
2.86688
2.86689
2.86691
2.86692
2.86693
2.86695
2.86696
2.86697
2.86699
2.867
2.86701
2.86703
2.86704
2.86705
2.86707
2.86708
2.8671
2.86711
2.86712
2.86714
2.86715
2.86716
2.86718
2.86719
2.8672
2.86721
2.86722
2.86723
2.86724
2.86725
2.86726
2.86726
2.86727
2.86727
2.86727
2.86727
2.86727
2.86727
2.86726
2.86726
2.86725
2.86724
2.86723
2.86722
2.86721
2.8672
2.86719
2.86718
2.86716
2.86715
2.86714
2.86712
2.86711
2.8671
2.86708
2.86707
2.86705
2.86704
2.86703
2.86701
2.867
2.86699
2.86697
2.86696
2.86695
2.86693
2.86692
2.86691
2.86689
2.86688
2.86687
2.86686
2.86684
2.86683
2.86682
2.86653
2.86655
2.86656
2.86657
2.86658
2.86659
2.8666
2.86661
2.86663
2.86664
2.86665
2.86666
2.86667
2.86668
2.86669
2.86671
2.86672
2.86673
2.86674
2.86675
2.86677
2.86678
2.86679
2.86681
2.86682
2.86683
2.86684
2.86686
2.86687
2.86688
2.86689
2.8669
2.86691
2.86691
2.86692
2.86693
2.86693
2.86693
2.86694
2.86694
2.86694
2.86694
2.86693
2.86693
2.86693
2.86692
2.86691
2.86691
2.8669
2.86689
2.86688
2.86687
2.86686
2.86684
2.86683
2.86682
2.86681
2.86679
2.86678
2.86677
2.86675
2.86674
2.86673
2.86672
2.86671
2.86669
2.86668
2.86667
2.86666
2.86665
2.86664
2.86663
2.86661
2.8666
2.86659
2.86658
2.86657
2.86656
2.86655
2.86653
2.86625
2.86626
2.86627
2.86628
2.86629
2.8663
2.86631
2.86632
2.86633
2.86634
2.86635
2.86636
2.86637
2.86638
2.86639
2.8664
2.86641
2.86642
2.86643
2.86645
2.86646
2.86647
2.86648
2.86649
2.8665
2.86651
2.86653
2.86654
2.86655
2.86656
2.86657
2.86657
2.86658
2.86659
2.8666
2.8666
2.8666
2.86661
2.86661
2.86661
2.86661
2.86661
2.86661
2.8666
2.8666
2.8666
2.86659
2.86658
2.86657
2.86657
2.86656
2.86655
2.86654
2.86653
2.86651
2.8665
2.86649
2.86648
2.86647
2.86646
2.86645
2.86643
2.86642
2.86641
2.8664
2.86639
2.86638
2.86637
2.86636
2.86635
2.86634
2.86633
2.86632
2.86631
2.8663
2.86629
2.86628
2.86627
2.86626
2.86625
2.86597
2.86598
2.86599
2.866
2.86601
2.86601
2.86602
2.86603
2.86604
2.86605
2.86606
2.86606
2.86607
2.86608
2.86609
2.8661
2.86611
2.86612
2.86613
2.86614
2.86615
2.86616
2.86617
2.86618
2.86619
2.8662
2.86621
2.86622
2.86623
2.86624
2.86625
2.86625
2.86626
2.86627
2.86627
2.86628
2.86628
2.86629
2.86629
2.86629
2.86629
2.86629
2.86629
2.86628
2.86628
2.86627
2.86627
2.86626
2.86625
2.86625
2.86624
2.86623
2.86622
2.86621
2.8662
2.86619
2.86618
2.86617
2.86616
2.86615
2.86614
2.86613
2.86612
2.86611
2.8661
2.86609
2.86608
2.86607
2.86606
2.86606
2.86605
2.86604
2.86603
2.86602
2.86601
2.86601
2.866
2.86599
2.86598
2.86597
2.86569
2.8657
2.86571
2.86571
2.86572
2.86573
2.86573
2.86574
2.86575
2.86575
2.86576
2.86577
2.86578
2.86579
2.86579
2.8658
2.86581
2.86582
2.86583
2.86584
2.86585
2.86585
2.86586
2.86587
2.86588
2.86589
2.8659
2.86591
2.86592
2.86592
2.86593
2.86594
2.86595
2.86595
2.86596
2.86596
2.86596
2.86597
2.86597
2.86597
2.86597
2.86597
2.86597
2.86596
2.86596
2.86596
2.86595
2.86595
2.86594
2.86593
2.86592
2.86592
2.86591
2.8659
2.86589
2.86588
2.86587
2.86586
2.86585
2.86585
2.86584
2.86583
2.86582
2.86581
2.8658
2.86579
2.86579
2.86578
2.86577
2.86576
2.86575
2.86575
2.86574
2.86573
2.86573
2.86572
2.86571
2.86571
2.8657
2.86569
2.86541
2.86541
2.86542
2.86543
2.86543
2.86544
2.86544
2.86545
2.86546
2.86546
2.86547
2.86548
2.86548
2.86549
2.8655
2.8655
2.86551
2.86552
2.86553
2.86553
2.86554
2.86555
2.86556
2.86557
2.86558
2.86558
2.86559
2.8656
2.86561
2.86561
2.86562
2.86563
2.86563
2.86564
2.86564
2.86565
2.86565
2.86565
2.86565
2.86565
2.86565
2.86565
2.86565
2.86565
2.86565
2.86564
2.86564
2.86563
2.86563
2.86562
2.86561
2.86561
2.8656
2.86559
2.86558
2.86558
2.86557
2.86556
2.86555
2.86554
2.86553
2.86553
2.86552
2.86551
2.8655
2.8655
2.86549
2.86548
2.86548
2.86547
2.86546
2.86546
2.86545
2.86544
2.86544
2.86543
2.86543
2.86542
2.86541
2.86541
2.86513
2.86513
2.86514
2.86514
2.86515
2.86515
2.86516
2.86516
2.86517
2.86517
2.86518
2.86518
2.86519
2.86519
2.8652
2.86521
2.86521
2.86522
2.86523
2.86523
2.86524
2.86525
2.86526
2.86526
2.86527
2.86528
2.86528
2.86529
2.8653
2.8653
2.86531
2.86532
2.86532
2.86533
2.86533
2.86533
2.86534
2.86534
2.86534
2.86534
2.86534
2.86534
2.86534
2.86534
2.86533
2.86533
2.86533
2.86532
2.86532
2.86531
2.8653
2.8653
2.86529
2.86528
2.86528
2.86527
2.86526
2.86526
2.86525
2.86524
2.86523
2.86523
2.86522
2.86521
2.86521
2.8652
2.86519
2.86519
2.86518
2.86518
2.86517
2.86517
2.86516
2.86516
2.86515
2.86515
2.86514
2.86514
2.86513
2.86513
2.86484
2.86485
2.86485
2.86486
2.86486
2.86486
2.86487
2.86487
2.86488
2.86488
2.86489
2.86489
2.8649
2.8649
2.86491
2.86491
2.86492
2.86492
2.86493
2.86494
2.86494
2.86495
2.86496
2.86496
2.86497
2.86497
2.86498
2.86499
2.86499
2.865
2.865
2.86501
2.86501
2.86502
2.86502
2.86502
2.86503
2.86503
2.86503
2.86503
2.86503
2.86503
2.86503
2.86503
2.86502
2.86502
2.86502
2.86501
2.86501
2.865
2.865
2.86499
2.86499
2.86498
2.86497
2.86497
2.86496
2.86496
2.86495
2.86494
2.86494
2.86493
2.86492
2.86492
2.86491
2.86491
2.8649
2.8649
2.86489
2.86489
2.86488
2.86488
2.86487
2.86487
2.86486
2.86486
2.86486
2.86485
2.86485
2.86484
2.86456
2.86456
2.86457
2.86457
2.86457
2.86458
2.86458
2.86458
2.86459
2.86459
2.8646
2.8646
2.8646
2.86461
2.86461
2.86462
2.86462
2.86463
2.86463
2.86464
2.86464
2.86465
2.86466
2.86466
2.86467
2.86467
2.86468
2.86468
2.86469
2.86469
2.8647
2.8647
2.86471
2.86471
2.86471
2.86472
2.86472
2.86472
2.86472
2.86472
2.86472
2.86472
2.86472
2.86472
2.86472
2.86471
2.86471
2.86471
2.8647
2.8647
2.86469
2.86469
2.86468
2.86468
2.86467
2.86467
2.86466
2.86466
2.86465
2.86464
2.86464
2.86463
2.86463
2.86462
2.86462
2.86461
2.86461
2.8646
2.8646
2.8646
2.86459
2.86459
2.86458
2.86458
2.86458
2.86457
2.86457
2.86457
2.86456
2.86456
2.86427
2.86428
2.86428
2.86428
2.86429
2.86429
2.86429
2.86429
2.8643
2.8643
2.8643
2.86431
2.86431
2.86432
2.86432
2.86432
2.86433
2.86433
2.86434
2.86434
2.86435
2.86435
2.86436
2.86436
2.86437
2.86437
2.86438
2.86438
2.86439
2.86439
2.86439
2.8644
2.8644
2.86441
2.86441
2.86441
2.86441
2.86441
2.86441
2.86442
2.86442
2.86441
2.86441
2.86441
2.86441
2.86441
2.86441
2.8644
2.8644
2.86439
2.86439
2.86439
2.86438
2.86438
2.86437
2.86437
2.86436
2.86436
2.86435
2.86435
2.86434
2.86434
2.86433
2.86433
2.86432
2.86432
2.86432
2.86431
2.86431
2.8643
2.8643
2.8643
2.86429
2.86429
2.86429
2.86429
2.86428
2.86428
2.86428
2.86427
2.86399
2.86399
2.86399
2.864
2.864
2.864
2.864
2.86401
2.86401
2.86401
2.86401
2.86402
2.86402
2.86402
2.86403
2.86403
2.86403
2.86404
2.86404
2.86405
2.86405
2.86406
2.86406
2.86406
2.86407
2.86407
2.86408
2.86408
2.86409
2.86409
2.86409
2.8641
2.8641
2.8641
2.8641
2.86411
2.86411
2.86411
2.86411
2.86411
2.86411
2.86411
2.86411
2.86411
2.86411
2.8641
2.8641
2.8641
2.8641
2.86409
2.86409
2.86409
2.86408
2.86408
2.86407
2.86407
2.86406
2.86406
2.86406
2.86405
2.86405
2.86404
2.86404
2.86403
2.86403
2.86403
2.86402
2.86402
2.86402
2.86401
2.86401
2.86401
2.86401
2.864
2.864
2.864
2.864
2.86399
2.86399
2.86399
2.8637
2.8637
2.86371
2.86371
2.86371
2.86371
2.86371
2.86372
2.86372
2.86372
2.86372
2.86373
2.86373
2.86373
2.86374
2.86374
2.86374
2.86375
2.86375
2.86375
2.86376
2.86376
2.86376
2.86377
2.86377
2.86378
2.86378
2.86378
2.86379
2.86379
2.86379
2.8638
2.8638
2.8638
2.8638
2.8638
2.86381
2.86381
2.86381
2.86381
2.86381
2.86381
2.86381
2.86381
2.8638
2.8638
2.8638
2.8638
2.8638
2.86379
2.86379
2.86379
2.86378
2.86378
2.86378
2.86377
2.86377
2.86376
2.86376
2.86376
2.86375
2.86375
2.86375
2.86374
2.86374
2.86374
2.86373
2.86373
2.86373
2.86372
2.86372
2.86372
2.86372
2.86371
2.86371
2.86371
2.86371
2.86371
2.8637
2.8637
2.86342
2.86342
2.86342
2.86342
2.86342
2.86342
2.86343
2.86343
2.86343
2.86343
2.86343
2.86344
2.86344
2.86344
2.86344
2.86345
2.86345
2.86345
2.86346
2.86346
2.86346
2.86346
2.86347
2.86347
2.86347
2.86348
2.86348
2.86348
2.86349
2.86349
2.86349
2.8635
2.8635
2.8635
2.8635
2.8635
2.86351
2.86351
2.86351
2.86351
2.86351
2.86351
2.86351
2.86351
2.8635
2.8635
2.8635
2.8635
2.8635
2.86349
2.86349
2.86349
2.86348
2.86348
2.86348
2.86347
2.86347
2.86347
2.86346
2.86346
2.86346
2.86346
2.86345
2.86345
2.86345
2.86344
2.86344
2.86344
2.86344
2.86343
2.86343
2.86343
2.86343
2.86343
2.86342
2.86342
2.86342
2.86342
2.86342
2.86342
2.86313
2.86313
2.86313
2.86313
2.86313
2.86313
2.86314
2.86314
2.86314
2.86314
2.86314
2.86315
2.86315
2.86315
2.86315
2.86315
2.86316
2.86316
2.86316
2.86316
2.86317
2.86317
2.86317
2.86318
2.86318
2.86318
2.86318
2.86319
2.86319
2.86319
2.8632
2.8632
2.8632
2.8632
2.8632
2.8632
2.86321
2.86321
2.86321
2.86321
2.86321
2.86321
2.86321
2.86321
2.8632
2.8632
2.8632
2.8632
2.8632
2.8632
2.86319
2.86319
2.86319
2.86318
2.86318
2.86318
2.86318
2.86317
2.86317
2.86317
2.86316
2.86316
2.86316
2.86316
2.86315
2.86315
2.86315
2.86315
2.86315
2.86314
2.86314
2.86314
2.86314
2.86314
2.86313
2.86313
2.86313
2.86313
2.86313
2.86313
2.86284
2.86284
2.86284
2.86284
2.86284
2.86285
2.86285
2.86285
2.86285
2.86285
2.86285
2.86285
2.86286
2.86286
2.86286
2.86286
2.86286
2.86287
2.86287
2.86287
2.86287
2.86288
2.86288
2.86288
2.86288
2.86289
2.86289
2.86289
2.86289
2.8629
2.8629
2.8629
2.8629
2.8629
2.8629
2.86291
2.86291
2.86291
2.86291
2.86291
2.86291
2.86291
2.86291
2.86291
2.86291
2.8629
2.8629
2.8629
2.8629
2.8629
2.8629
2.86289
2.86289
2.86289
2.86289
2.86288
2.86288
2.86288
2.86288
2.86287
2.86287
2.86287
2.86287
2.86286
2.86286
2.86286
2.86286
2.86286
2.86285
2.86285
2.86285
2.86285
2.86285
2.86285
2.86285
2.86284
2.86284
2.86284
2.86284
2.86284
2.86255
2.86255
2.86255
2.86255
2.86256
2.86256
2.86256
2.86256
2.86256
2.86256
2.86256
2.86256
2.86257
2.86257
2.86257
2.86257
2.86257
2.86257
2.86258
2.86258
2.86258
2.86258
2.86258
2.86259
2.86259
2.86259
2.86259
2.8626
2.8626
2.8626
2.8626
2.8626
2.8626
2.86261
2.86261
2.86261
2.86261
2.86261
2.86261
2.86261
2.86261
2.86261
2.86261
2.86261
2.86261
2.86261
2.86261
2.8626
2.8626
2.8626
2.8626
2.8626
2.8626
2.86259
2.86259
2.86259
2.86259
2.86258
2.86258
2.86258
2.86258
2.86258
2.86257
2.86257
2.86257
2.86257
2.86257
2.86257
2.86256
2.86256
2.86256
2.86256
2.86256
2.86256
2.86256
2.86256
2.86255
2.86255
2.86255
2.86255
2.86226
2.86226
2.86227
2.86227
2.86227
2.86227
2.86227
2.86227
2.86227
2.86227
2.86227
2.86227
2.86227
2.86228
2.86228
2.86228
2.86228
2.86228
2.86228
2.86229
2.86229
2.86229
2.86229
2.86229
2.86229
2.8623
2.8623
2.8623
2.8623
2.8623
2.86231
2.86231
2.86231
2.86231
2.86231
2.86231
2.86231
2.86231
2.86231
2.86231
2.86231
2.86231
2.86231
2.86231
2.86231
2.86231
2.86231
2.86231
2.86231
2.86231
2.8623
2.8623
2.8623
2.8623
2.8623
2.86229
2.86229
2.86229
2.86229
2.86229
2.86229
2.86228
2.86228
2.86228
2.86228
2.86228
2.86228
2.86227
2.86227
2.86227
2.86227
2.86227
2.86227
2.86227
2.86227
2.86227
2.86227
2.86227
2.86226
2.86226
2.86198
2.86198
2.86198
2.86198
2.86198
2.86198
2.86198
2.86198
2.86198
2.86198
2.86198
2.86198
2.86198
2.86198
2.86199
2.86199
2.86199
2.86199
2.86199
2.86199
2.86199
2.862
2.862
2.862
2.862
2.862
2.862
2.86201
2.86201
2.86201
2.86201
2.86201
2.86201
2.86201
2.86201
2.86202
2.86202
2.86202
2.86202
2.86202
2.86202
2.86202
2.86202
2.86202
2.86202
2.86201
2.86201
2.86201
2.86201