/*--------------------------------*- C++ -*----------------------------------*\
  =========                 |
  \\      /  F ield         | OpenFOAM: The Open Source CFD Toolbox
   \\    /   O peration     | Website:  https://openfoam.org
    \\  /    A nd           | Version:  11
     \\/     M anipulation  |
\*---------------------------------------------------------------------------*/
FoamFile
{
    format      ascii;
    class       volScalarField;
    location    "100";
    object      C;
}
// * * * * * * * * * * * * * * * * * * * * * * * * * * * * * * * * * * * * * //

dimensions      [0 0 0 1 0 0 0];

internalField   nonuniform List<scalar> 
440320
(
-2.83827e-313
3.83321e-312
-5.52239e-312
-3.45101e-312
-1.38525e-312
-5.07334e-312
-2.97266e-312
-1.22851e-311
-1.80092e-311
-3.22061e-312
-1.36625e-313
2.26251e-312
2.22949e-312
-6.80845e-313
-4.18143e-313
3.01314e-312
2.26316e-312
-7.07283e-312
-1.26843e-311
-1.26654e-311
-7.03447e-312
9.45281e-314
2.28151e-312
1.34641e-311
4.86437e-312
2.89369e-312
5.38671e-312
1.55437e-311
5.10429e-312
7.28242e-313
-1.10094e-313
-1.20954e-311
-9.13038e-312
-1.8239e-311
-8.4171e-312
-1.77041e-311
-1.71487e-311
-4.97961e-312
-2.87694e-312
-5.04184e-312
2.01096e-312
-3.26342e-312
-2.89496e-312
-1.68708e-311
-2.33349e-312
-1.81588e-312
-2.7129e-312
-3.11168e-312
3.15029e-313
3.50734e-313
2.18829e-312
9.70404e-314
7.0223e-313
2.46096e-312
3.33678e-312
1.80523e-311
1.61385e-311
5.1788e-312
1.19374e-312
-9.65563e-312
-2.13499e-312
-3.68063e-312
-9.81925e-312
-2.74105e-312
1.99211e-312
1.80091e-312
-2.02988e-312
9.75666e-313
4.54913e-312
5.18977e-312
1.2115e-311
4.80111e-312
-3.81587e-312
-2.34226e-312
-1.2014e-313
4.14411e-312
-1.46559e-311
-9.80793e-312
-1.34311e-311
-3.13438e-312
-2.82469e-311
-3.9084e-311
-2.94298e-311
-1.38513e-311
4.83196e-312
-1.12425e-311
4.2292e-312
4.7425e-312
4.23449e-312
7.13507e-312
8.56248e-312
6.57775e-312
-8.34222e-312
-3.9974e-312
1.36934e-312
-6.99542e-312
-1.67718e-311
-1.7199e-311
-1.73822e-312
-3.64194e-312
-2.77797e-312
6.12264e-312
2.79347e-312
1.91318e-311
1.66617e-311
1.26441e-311
6.57345e-312
2.03923e-311
1.36727e-311
-3.31511e-312
1.17857e-311
-6.15464e-312
-1.0132e-311
-1.76087e-311
-2.6266e-312
-4.3633e-312
-7.96097e-312
1.00816e-311
1.21884e-311
8.99703e-312
-7.41877e-312
-5.01557e-312
-3.19288e-311
-2.95238e-311
-8.66485e-312
-1.32263e-311
5.7902e-312
-1.7209e-312
-1.22861e-312
1.86289e-312
-5.11074e-312
-1.57094e-311
-1.39853e-311
6.082e-312
-5.80404e-312
-1.44107e-312
1.0016e-312
-1.05043e-311
7.48984e-313
-1.62985e-312
1.87945e-311
5.25069e-312
-6.10665e-312
-2.33299e-311
-1.48498e-311
-8.38838e-312
-8.25733e-312
-1.06251e-311
2.72734e-312
1.1077e-311
7.59817e-312
-1.41326e-311
-6.10986e-312
6.56474e-312
1.41366e-311
2.57709e-311
2.11655e-311
2.1004e-311
1.73166e-311
8.50775e-312
-8.08814e-311
-4.83284e-311
-3.49084e-311
-2.80822e-311
-1.46647e-311
-9.13463e-312
6.81592e-312
1.55628e-311
1.69774e-311
2.00711e-311
2.88036e-311
2.11624e-311
8.51565e-312
-4.05566e-312
2.06019e-311
7.68526e-312
9.41313e-312
5.07866e-312
-8.48362e-312
-1.70431e-311
-3.42966e-312
1.46532e-311
2.44223e-311
2.29829e-311
2.83929e-311
1.28756e-311
1.38969e-312
1.17585e-311
1.17276e-312
3.0998e-312
1.16317e-311
-1.43955e-311
-7.88709e-312
-8.4809e-312
1.91449e-311
1.05358e-311
-4.3647e-312
-2.01116e-312
2.88212e-312
9.58418e-313
-9.95988e-312
5.95411e-312
-2.43038e-311
-2.15558e-311
-1.70635e-311
1.26276e-312
6.73387e-312
-1.04543e-312
-2.17081e-312
8.70097e-312
-1.80503e-312
-2.76818e-312
-8.11624e-312
-7.88772e-312
-2.12803e-312
-9.09115e-312
-2.46059e-311
-2.76696e-311
-6.04983e-312
1.71415e-311
3.52329e-311
2.36677e-311
5.89267e-312
-5.2283e-312
-3.19763e-312
-1.92182e-313
-3.2423e-312
-5.23649e-313
1.12886e-312
7.78684e-312
-1.00483e-311
-2.82339e-311
-2.20459e-311
-4.32509e-312
1.42212e-311
3.55213e-311
3.15138e-311
1.92584e-311
2.97315e-311
-1.38776e-312
-5.73124e-311
-2.59048e-311
-3.5643e-311
-3.19753e-311
-1.64081e-311
-2.49587e-311
-1.66718e-311
7.91026e-312
6.37585e-312
1.66687e-311
2.87678e-311
3.04092e-311
2.0519e-311
4.75924e-312
1.95284e-312
4.26911e-312
9.90709e-312
1.9006e-311
1.08275e-311
-5.48853e-312
-8.9201e-312
7.97894e-312
1.32885e-311
2.88319e-311
2.38008e-311
1.51063e-311
-8.24292e-312
-6.95815e-312
-1.93673e-311
-9.11782e-312
-1.85962e-311
-2.62702e-311
-2.23329e-311
-1.10079e-311
1.97704e-311
-2.48974e-312
-2.07904e-312
-3.46024e-312
-1.06359e-311
-1.78587e-311
-5.02671e-312
1.92693e-311
-9.6364e-312
1.12463e-312
1.59643e-311
2.45703e-312
5.74382e-312
-5.80707e-312
-1.53115e-312
-1.12297e-313
-1.3035e-311
-1.07175e-311
-1.11393e-311
-1.63133e-311
1.02085e-311
9.69053e-312
2.06545e-312
5.11253e-312
9.87802e-312
3.25151e-311
3.35117e-311
2.7605e-311
8.33723e-312
-8.0536e-312
-3.73785e-312
1.03774e-311
1.85577e-312
-9.00436e-312
-3.13221e-312
-2.32079e-312
-2.11e-311
-1.82774e-311
-1.39678e-311
-1.45096e-311
-3.45271e-312
4.77342e-314
4.46655e-312
-2.1646e-311
-1.71853e-311
-1.6713e-311
-2.82585e-311
-2.2999e-311
-5.78378e-311
-5.10933e-311
-2.80485e-311
-8.21325e-312
-2.01796e-311
-3.71287e-312
6.24297e-312
1.18413e-311
1.73021e-311
2.39505e-311
3.16012e-311
1.85903e-311
-1.92764e-312
-1.27276e-312
6.21401e-312
2.24652e-311
1.66337e-311
1.37681e-311
6.7932e-312
7.74372e-312
5.30461e-313
7.89926e-312
1.72967e-311
1.92424e-311
1.68111e-311
3.79028e-312
-2.66283e-311
-1.28464e-311
-2.85498e-311
-2.77165e-311
-3.044e-311
-9.11182e-312
1.28014e-311
4.14635e-312
-1.13096e-311
-3.10649e-312
-7.58837e-312
-1.79162e-311
-5.43039e-312
2.71835e-311
-2.20067e-312
2.07358e-311
2.1198e-311
2.24978e-311
2.19881e-311
7.30442e-312
-1.3126e-311
-1.14665e-311
5.20413e-312
-1.26523e-311
-1.97258e-311
1.99988e-312
1.4683e-311
3.63275e-311
2.31025e-311
7.52946e-312
1.69767e-311
4.1411e-311
4.7597e-311
2.17142e-311
1.51016e-311
-4.79247e-312
1.00819e-311
2.98536e-311
1.87379e-311
3.82758e-312
-6.13505e-312
-2.43579e-312
1.20605e-312
1.3326e-312
-5.72987e-312
-7.73799e-312
-1.78002e-311
-1.30822e-311
2.31853e-312
-5.20231e-312
-1.09708e-311
-6.15093e-311
8.26769e-312
-9.70212e-312
-2.02835e-311
-3.51187e-311
-2.71022e-311
-2.60133e-311
-3.18454e-311
-1.44888e-311
2.68404e-312
5.09926e-312
2.68844e-311
2.63803e-311
1.47828e-311
9.76661e-312
-1.02244e-312
-2.97259e-312
1.92888e-312
1.69675e-311
1.44622e-311
1.97409e-311
2.83912e-311
9.0591e-312
-5.99858e-312
-1.02491e-311
3.78931e-312
2.44509e-311
2.63693e-311
1.886e-311
-7.58054e-312
1.3347e-312
-2.87186e-312
-1.48043e-311
-1.73908e-311
-5.19652e-312
1.06986e-311
5.1593e-312
-1.16042e-311
-2.19704e-312
-1.62042e-311
-1.77759e-311
-7.57857e-312
2.7383e-312
3.23068e-312
2.05573e-311
4.62067e-311
4.92283e-311
3.89782e-311
2.76494e-311
7.5471e-312
1.01393e-311
-9.35604e-312
-2.47934e-311
-3.10407e-311
2.23658e-312
1.45795e-311
1.59876e-311
4.53116e-312
3.38971e-313
-6.9416e-313
2.66257e-311
3.33131e-311
2.08532e-311
2.88982e-311
1.73588e-311
1.3586e-311
2.98879e-311
2.17706e-311
-2.89487e-312
1.14206e-311
1.4531e-311
2.34623e-311
4.48399e-312
3.60643e-312
5.36855e-312
2.45092e-312
-3.13705e-312
1.31436e-312
-7.82806e-312
-2.48327e-311
-2.03749e-311
3.04354e-311
2.97169e-311
1.87068e-311
-2.83065e-311
-2.36671e-311
-3.60491e-311
-2.8388e-311
-2.11174e-311
7.62463e-312
8.41531e-312
1.84566e-311
2.28861e-311
1.45048e-311
7.93856e-312
1.50604e-312
-3.55702e-313
-3.70124e-312
-1.67632e-311
-1.83291e-311
-9.47094e-312
1.03681e-311
4.16693e-312
-1.29566e-311
-2.66149e-311
-3.90995e-312
8.37487e-312
2.21157e-311
1.72378e-311
1.69192e-311
8.13436e-312
-3.29235e-312
-1.56689e-311
-1.69983e-311
-2.35647e-311
-1.84547e-311
-1.17983e-311
-3.46221e-312
5.45826e-312
-6.188e-312
-2.13668e-311
1.29804e-313
1.62123e-312
1.24498e-311
9.4421e-312
3.3967e-311
3.90804e-311
3.96741e-311
2.87411e-311
1.57029e-311
5.71794e-312
-1.34949e-311
-3.59201e-311
-2.56773e-311
2.44911e-312
1.30486e-311
-4.24681e-312
-1.43612e-311
-2.16102e-311
-3.6295e-311
-1.07822e-311
-1.88865e-312
-5.47189e-312
1.75704e-311
8.77284e-312
1.18895e-311
1.37566e-311
-5.87867e-312
-5.66174e-312
1.65451e-311
2.91585e-311
4.97558e-311
2.63539e-311
2.26931e-311
1.77409e-311
3.67556e-311
4.28179e-311
2.27097e-311
1.00713e-311
-1.89857e-313
-9.09536e-314
-1.57492e-312
2.75712e-312
3.95443e-312
-1.40926e-311
-1.00322e-311
-1.82622e-313
-2.6478e-311
-1.04787e-312
5.95325e-312
-6.41344e-312
1.20177e-312
1.12526e-311
3.1641e-311
2.80778e-311
-1.94336e-312
-1.85443e-312
-3.11533e-311
-3.30737e-311
-2.05598e-311
-1.75637e-311
-1.46812e-311
4.75481e-312
-2.44831e-311
-2.68727e-311
-2.25103e-311
-1.26583e-311
2.236e-312
1.28212e-311
2.70937e-311
2.95432e-311
2.28294e-311
-6.94443e-313
-3.02837e-311
-2.41473e-311
-3.53744e-311
-2.98447e-311
-8.33448e-312
-4.16465e-312
5.60097e-313
-1.55515e-311
-3.0573e-312
-5.23341e-312
-3.7276e-312
-1.06106e-311
1.44419e-311
3.0568e-311
2.76555e-311
1.12956e-311
9.12209e-312
4.63524e-312
6.61973e-312
7.14906e-313
1.01234e-312
6.03974e-312
8.20241e-312
-1.65004e-311
-2.40343e-311
-3.81434e-311
-3.65618e-311
-3.19855e-311
-4.46696e-311
-4.15148e-311
-3.25166e-311
-3.06956e-311
-2.85195e-311
-8.94272e-312
-5.51364e-312
4.16225e-312
2.15506e-311
3.4268e-311
5.47023e-311
5.00368e-311
4.50968e-311
5.90391e-311
5.85742e-311
6.42504e-311
8.02599e-311
4.90933e-311
5.09725e-311
6.80621e-311
-7.09712e-311
-4.67416e-311
-2.3174e-311
-1.00552e-311
-1.30207e-311
1.03062e-311
1.00995e-311
1.22201e-312
3.93241e-312
-5.77206e-312
-2.36216e-312
1.4399e-312
3.61682e-311
2.19979e-311
6.70041e-312
8.33741e-312
-1.34992e-311
-1.87676e-311
-1.36645e-311
-5.92005e-312
-1.14321e-311
-8.83625e-312
-1.7681e-311
-1.10693e-311
-1.67667e-311
-1.94371e-311
-1.19068e-311
-1.52091e-312
1.83919e-311
1.31658e-311
2.19086e-311
1.28136e-311
-1.03835e-311
-9.89188e-312
-1.95857e-311
-1.78951e-311
-2.02849e-311
-5.78996e-312
1.10218e-311
-4.78099e-315
-1.83953e-311
-3.04019e-311
-3.87764e-311
-1.28778e-311
-5.44358e-312
7.98001e-312
3.0683e-312
4.70582e-312
7.52576e-313
1.26116e-311
2.5625e-311
2.75804e-311
1.3511e-311
5.65939e-312
4.61052e-312
-8.44522e-312
-1.03782e-312
1.2127e-312
-2.72085e-311
-3.87906e-311
-5.731e-311
-5.663e-311
-4.72402e-311
-5.94013e-311
-4.6909e-311
-2.29356e-311
-1.01032e-311
5.6142e-312
1.02416e-311
3.61919e-311
5.60496e-311
3.77014e-311
6.06236e-311
7.79013e-311
5.45309e-311
6.36485e-311
8.13078e-311
6.83336e-311
6.29421e-311
3.17722e-311
-9.67847e-311
-9.14687e-311
-4.85904e-311
-3.97033e-311
-2.31016e-311
2.24914e-311
2.40965e-311
2.4587e-311
3.5e-313
1.38389e-313
4.21164e-312
8.00433e-312
3.78107e-311
3.26544e-311
2.75046e-311
2.2186e-311
2.10884e-311
-2.51567e-312
-1.16189e-311
-8.53396e-312
-2.11248e-311
-1.66563e-311
-2.46541e-311
-3.60967e-311
-1.97839e-311
-1.027e-311
-2.12546e-312
1.56121e-312
1.34947e-311
4.42765e-312
1.49567e-311
1.79716e-311
1.26137e-311
-1.39257e-312
5.19583e-312
-1.54943e-312
-1.459e-311
-9.13036e-312
2.15473e-311
1.04425e-311
-6.43577e-312
-3.25471e-311
-3.21384e-311
-2.33043e-311
-2.01297e-311
-5.07561e-312
-5.07789e-312
-1.13725e-311
7.15957e-312
1.10008e-311
1.84837e-311
2.82239e-311
1.91392e-311
4.46502e-313
1.55113e-311
2.41758e-311
3.6753e-311
1.83959e-311
-1.64157e-311
-4.48246e-311
-5.53909e-311
-4.6938e-311
-4.32925e-311
-6.4157e-311
-6.22295e-311
-3.54624e-311
-3.15333e-311
-2.70138e-312
-2.71223e-312
1.11067e-311
2.24383e-311
4.0383e-311
4.17732e-311
5.81417e-311
3.6086e-311
4.47165e-311
3.68914e-311
6.66292e-311
4.26446e-311
1.91029e-311
-7.67913e-312
-2.27428e-311
-2.12637e-311
-1.94082e-311
3.74267e-312
2.86188e-311
2.38458e-311
1.30709e-311
2.23137e-311
1.18562e-311
4.66078e-312
1.90914e-311
3.83698e-311
4.3106e-311
3.31228e-311
3.0953e-311
3.07065e-311
1.01819e-311
-3.10494e-312
-9.09691e-312
-1.51511e-311
-2.36588e-311
-3.65668e-311
-4.5978e-311
-3.00229e-311
-8.08622e-312
1.5101e-312
8.97716e-312
1.67473e-311
1.87401e-311
3.64674e-311
1.97906e-311
1.1267e-311
1.08648e-311
1.06318e-311
1.08772e-311
-4.74498e-312
4.3224e-312
2.85987e-311
2.97357e-311
9.19515e-312
-7.51249e-312
-1.57471e-311
-2.12585e-311
-2.91701e-311
-2.79519e-311
-3.3498e-311
-2.00876e-311
9.24953e-312
1.94746e-311
2.87813e-311
2.03817e-311
3.9908e-312
-1.55477e-312
1.84842e-311
3.85214e-311
3.80515e-311
2.31996e-311
-4.33194e-313
-2.64581e-311
-3.35364e-311
-2.02074e-311
-3.68234e-311
-5.93399e-311
-5.07792e-311
-2.75817e-311
-4.46815e-311
-9.81993e-312
-8.66752e-312
-7.28098e-313
1.79338e-311
3.73549e-311
1.46115e-311
2.32822e-311
2.31084e-311
-1.36888e-312
-1.39998e-311
1.16109e-312
-3.06004e-311
-4.23672e-311
1.3693e-311
8.6894e-312
-2.38552e-311
-1.35806e-311
2.86939e-312
-8.51053e-312
1.89268e-311
9.63975e-312
8.95992e-312
2.37322e-311
2.11659e-311
2.58927e-311
3.59111e-311
4.60202e-311
2.45632e-311
1.45985e-311
3.64586e-311
3.40662e-311
2.2122e-311
1.12019e-311
1.31168e-311
-9.00889e-312
-3.5993e-311
-5.10765e-311
-4.7729e-311
-2.23521e-311
6.04068e-313
-8.28915e-312
-8.94959e-312
1.97115e-311
3.34084e-311
9.83675e-312
6.87774e-312
4.5315e-312
2.50129e-312
1.45313e-311
8.67962e-312
1.43625e-311
2.67199e-311
4.75476e-311
2.64125e-311
-2.80569e-312
-1.53292e-311
-4.93372e-312
-1.78587e-311
-3.41537e-311
-4.83021e-311
-3.29226e-311
-3.84379e-312
1.222e-311
5.94534e-312
1.16755e-311
6.7933e-312
1.44949e-311
2.30151e-311
2.41751e-311
3.61536e-311
3.86208e-311
1.00369e-311
-4.58985e-312
-1.96314e-311
-1.84895e-311
-2.586e-311
-3.69168e-311
-2.84349e-311
-3.29035e-311
-2.22628e-311
1.3584e-312
6.65493e-312
3.76064e-312
1.4401e-311
5.96865e-312
-1.5371e-311
-1.20921e-311
-1.049e-311
-1.06816e-311
-3.97623e-311
-4.11953e-312
-2.97552e-311
-2.28126e-311
-1.45877e-311
-4.09767e-312
-3.6882e-312
5.6345e-313
-9.42094e-313
-1.60614e-311
-1.85047e-311
7.88031e-313
5.74368e-312
4.17414e-311
3.01202e-311
1.51351e-311
2.90395e-311
2.5779e-311
2.22571e-311
1.32836e-311
3.54082e-311
4.01847e-311
3.45848e-311
1.56609e-311
1.10995e-311
-9.64136e-312
-3.65134e-311
-4.15307e-311
-6.40178e-311
-3.05469e-311
-1.64318e-311
-1.64153e-311
-1.8547e-311
9.45164e-312
3.25421e-311
1.31149e-311
1.24806e-311
9.65605e-312
1.35527e-311
2.89581e-312
-4.51106e-313
1.59356e-311
3.98734e-311
4.7899e-311
5.00459e-311
2.89845e-311
-4.74524e-312
-6.0967e-312
-2.55805e-311
-2.41874e-311
-3.47288e-311
-2.96278e-311
-2.68999e-311
-8.56344e-312
-5.64677e-312
-3.34378e-312
1.87457e-311
2.78986e-311
2.66902e-311
4.44e-311
5.39983e-311
6.30586e-311
2.81531e-311
2.18098e-311
-6.04957e-313
-1.13526e-312
8.41616e-312
-3.84286e-312
-1.77025e-311
4.6503e-313
-3.127e-312
1.44098e-311
3.05275e-311
1.701e-311
1.97258e-311
-5.86953e-312
-5.87666e-312
2.6092e-311
-5.33619e-312
1.44021e-311
-1.30855e-311
3.74287e-311
4.03073e-311
6.24495e-311
7.21724e-313
4.51519e-312
1.58733e-311
4.90946e-311
3.41187e-311
5.07331e-312
4.52647e-312
-7.58887e-312
1.1412e-311
2.83232e-311
1.93213e-311
1.4464e-312
1.12133e-311
3.79308e-311
1.83782e-311
7.23622e-314
1.90213e-311
3.22519e-311
2.59122e-311
7.13081e-312
1.54525e-311
9.26709e-313
-2.34547e-311
-3.67321e-311
-3.86881e-311
-2.7012e-311
-1.25764e-311
-1.58373e-311
-1.57943e-311
-4.56716e-313
2.82349e-311
2.42375e-311
1.19733e-311
3.7249e-312
1.23284e-312
6.84159e-312
8.79368e-312
2.01724e-311
4.94064e-311
5.6701e-311
6.15019e-311
4.82906e-311
2.87899e-311
6.93283e-312
-2.5015e-311
-3.70833e-311
-3.96174e-311
-3.21298e-311
-3.35437e-311
-1.62615e-311
5.6098e-314
7.39372e-312
8.17533e-312
1.16112e-311
2.50399e-311
4.05265e-311
6.0175e-311
6.31994e-311
3.90522e-311
1.97867e-311
1.59759e-311
4.34153e-312
3.46569e-311
4.13799e-312
-1.30511e-311
2.60115e-312
1.52684e-311
3.05837e-311
3.46055e-311
1.72146e-311
2.57822e-311
2.64397e-311
2.84892e-311
4.33789e-311
1.89087e-311
4.4433e-311
4.28115e-311
6.12968e-311
7.60953e-311
1.0325e-310
2.24496e-312
-1.67836e-311
-2.38732e-311
3.02718e-311
1.89153e-311
1.21819e-311
1.96455e-311
5.81804e-312
-5.89062e-312
-1.98799e-312
-1.18113e-311
-7.33077e-312
6.09123e-312
2.80672e-311
1.3831e-311
8.20402e-312
2.85661e-311
4.52091e-311
2.14539e-311
1.82479e-311
2.43899e-312
8.20688e-312
-4.96798e-312
-2.66614e-311
-2.37055e-311
-6.53207e-312
-8.45293e-312
-2.56136e-311
-2.56894e-311
-2.58053e-311
-4.4181e-312
5.18004e-312
2.04531e-312
5.91222e-313
-8.85153e-312
1.77244e-312
1.32481e-311
1.32823e-311
2.67061e-311
4.10346e-311
6.98847e-311
4.57475e-311
2.19737e-311
1.29529e-311
-1.87016e-311
-3.11568e-311
-3.7358e-311
-4.83618e-311
-3.17723e-311
-9.63663e-312
1.17285e-311
5.75783e-312
9.58102e-312
1.18334e-311
2.29385e-311
4.37348e-311
5.67668e-311
5.38414e-311
3.54119e-311
1.9352e-311
2.80824e-311
2.07254e-311
2.61415e-311
4.8558e-312
-9.35902e-312
-1.84929e-312
1.83913e-311
2.94197e-311
3.28579e-311
3.03873e-311
3.20621e-311
5.093e-311
6.95005e-311
6.10746e-311
4.59485e-311
7.25391e-311
6.98266e-311
9.77029e-311
1.03612e-310
1.42032e-310
-3.93461e-311
-3.83376e-311
-5.1155e-311
-2.72105e-311
5.2103e-312
2.91478e-311
1.64285e-311
9.22072e-312
3.8017e-312
6.38306e-312
-7.34536e-312
-1.9273e-311
-9.86868e-312
6.44619e-312
4.21095e-312
2.34524e-311
1.96069e-311
7.29311e-312
-5.43765e-313
1.68296e-311
5.85715e-312
1.39518e-311
1.00771e-312
-1.71811e-311
-3.49828e-311
-2.00035e-311
-1.64954e-311
-2.16025e-311
-1.32526e-311
-2.06059e-311
-4.2098e-312
-6.33358e-312
1.92609e-312
-1.26547e-312
-4.67601e-312
-2.67824e-312
-2.49004e-313
1.36743e-311
1.2924e-311
5.36771e-311
6.46996e-311
4.72181e-311
2.5452e-311
2.69002e-311
1.023e-311
-1.62128e-311
-2.11894e-311
-2.26723e-311
-2.20034e-311
-5.98929e-312
-1.62956e-312
-1.07183e-312
1.79375e-311
1.93455e-311
2.12833e-311
2.78829e-311
3.40367e-311
2.76011e-311
7.10688e-312
8.98813e-312
3.56037e-311
3.22097e-311
3.29706e-311
2.35768e-312
-4.5417e-312
-5.35701e-312
2.9543e-312
4.01898e-311
4.22353e-311
6.09443e-311
7.31922e-311
6.31684e-311
5.33085e-311
6.15773e-311
8.20668e-311
9.51426e-311
7.83633e-311
9.97141e-311
9.54272e-311
1.34831e-310
-4.47356e-311
-7.2896e-311
-5.58365e-311
-3.90578e-311
1.91812e-311
3.3944e-312
-5.80968e-312
2.40057e-311
3.37878e-311
1.68117e-311
1.00359e-311
-2.84874e-311
-4.52528e-312
-9.2957e-312
3.75172e-312
2.63437e-311
1.92604e-311
1.24654e-311
-3.69219e-313
4.63254e-313
-1.0255e-311
1.01958e-312
8.39877e-312
-2.29983e-311
-3.34762e-311
-9.33241e-312
-2.29885e-311
-2.07636e-311
-7.61566e-312
-1.72814e-311
8.85262e-312
1.05803e-311
-6.76162e-312
6.87054e-312
1.45042e-312
-8.3381e-313
-1.57524e-311
5.18867e-312
2.53951e-311
3.94354e-311
5.11385e-311
3.47959e-311
1.88089e-311
1.18634e-311
8.80935e-312
-7.77377e-312
-1.9093e-311
-3.24858e-311
-3.69651e-311
-1.67666e-311
-1.30437e-311
2.07725e-312
2.17654e-311
2.17427e-311
1.2857e-311
1.54929e-311
1.94528e-311
2.09012e-311
-1.20339e-311
-1.48256e-311
4.89184e-312
1.67924e-311
2.02923e-311
-2.03444e-311
-5.24543e-313
9.59496e-313
1.06605e-312
3.05919e-311
4.92679e-311
6.51417e-311
6.32015e-311
5.87056e-311
3.39167e-311
1.55541e-311
4.30595e-311
6.59356e-311
7.10682e-311
7.90385e-311
8.80548e-311
9.4465e-311
-2.86595e-311
-2.9331e-311
-3.65659e-311
-4.79082e-311
-3.35272e-311
-1.94368e-311
-9.68428e-312
1.06612e-311
2.62421e-311
7.96359e-312
-8.21965e-312
-1.28213e-311
-9.31359e-312
-2.74769e-311
-2.26019e-311
1.86341e-311
2.49711e-311
1.00923e-311
1.63948e-311
1.99017e-311
-3.95767e-312
-2.42091e-311
1.29945e-312
3.95261e-312
-4.71318e-312
-8.16607e-312
-7.33194e-312
-1.67901e-311
-5.12015e-312
-9.86485e-312
-2.4697e-312
3.95055e-312
-9.78057e-312
9.5378e-312
4.28081e-312
1.12339e-311
7.36947e-312
1.6989e-311
2.90493e-311
3.16626e-311
3.82629e-311
2.41624e-311
8.50321e-312
8.05397e-312
-8.41636e-312
4.03443e-312
-1.13286e-311
-3.38277e-311
-3.67404e-311
-3.79965e-311
-1.11942e-311
-1.41483e-311
-5.80068e-312
-9.04968e-312
-4.06364e-312
1.51318e-311
3.91611e-312
3.39422e-312
-1.69847e-311
-2.57026e-311
3.35787e-312
1.52625e-311
1.31284e-311
-7.19134e-312
-1.0223e-311
-8.72397e-312
-1.28602e-311
-2.01626e-311
1.18895e-312
2.52933e-311
3.41519e-311
1.68128e-311
-7.47342e-312
-3.22695e-311
1.42282e-312
1.76126e-311
2.63934e-311
2.4842e-311
7.37176e-311
4.59691e-311
-8.34102e-311
-8.9439e-311
-8.87162e-311
-5.37875e-311
-3.0727e-311
-2.35606e-311
-2.25978e-311
1.88629e-312
2.30273e-311
1.67331e-311
-1.65812e-311
-1.83976e-311
-2.21321e-311
-1.60166e-311
2.09625e-312
2.54166e-312
1.03455e-311
9.41519e-313
-1.491e-312
1.4585e-311
-6.50897e-312
-1.75041e-311
5.45632e-312
7.89726e-312
7.23204e-312
5.13795e-312
-2.48642e-313
-1.26044e-311
-1.185e-311
-8.66595e-312
3.79034e-312
5.89868e-312
-7.44676e-312
1.14251e-311
1.22307e-311
1.01828e-311
9.94047e-312
2.99843e-311
2.94806e-311
4.12118e-311
2.89579e-311
3.37932e-311
2.33204e-311
1.83002e-311
1.24093e-311
1.12005e-311
-3.98602e-312
-2.14126e-311
-4.91141e-311
-3.17352e-311
-1.58384e-311
-3.4675e-311
-1.63072e-311
-1.21421e-311
-1.16883e-311
5.25099e-313
3.07509e-312
-5.37342e-312
2.27377e-312
-1.95639e-311
3.90638e-312
2.92811e-311
1.46272e-311
5.2775e-312
-5.70394e-312
-7.34984e-312
-2.03659e-311
-4.44546e-311
-2.86269e-311
-2.82436e-311
-1.10408e-311
-2.3269e-312
-2.55334e-311
-3.01457e-311
-2.97077e-312
-1.82871e-311
-3.33117e-313
1.11608e-311
-6.0179e-312
-1.25669e-311
-6.32423e-311
-6.01692e-311
-1.03516e-310
-8.60779e-311
-6.14315e-311
-3.71112e-311
-1.39358e-311
8.84796e-312
6.80814e-312
-1.75459e-311
-2.72861e-311
-1.44645e-311
-1.267e-311
1.54867e-312
1.45587e-311
1.40987e-311
-2.87103e-312
1.34346e-311
3.01047e-312
2.13074e-311
-1.40161e-311
-2.16277e-311
-7.29531e-312
3.43802e-312
2.56242e-312
-8.6814e-312
-1.78894e-311
-8.41325e-312
-2.14051e-311
5.0459e-312
4.34288e-312
1.26555e-311
2.39101e-312
2.03891e-311
2.04866e-311
2.01646e-311
1.37971e-311
1.95994e-311
1.46527e-311
2.70111e-311
2.32322e-311
3.69345e-311
3.51194e-311
3.61152e-311
1.19433e-311
8.64574e-313
-4.35374e-312
-1.67676e-311
-3.1548e-311
-2.77382e-311
-1.61933e-311
-4.04365e-311
-1.07703e-311
-3.72821e-312
-1.04948e-311
-1.14258e-311
4.21345e-313
-4.00596e-312
-4.39426e-312
-1.71405e-311
1.78773e-311
2.73606e-311
1.44917e-311
1.31473e-312
-2.35966e-311
-2.81095e-311
-2.15983e-311
-3.07588e-311
-2.25389e-311
-9.84638e-312
-3.49917e-312
1.95747e-311
1.83476e-311
1.44189e-311
1.86407e-311
-6.02405e-313
2.99164e-311
-1.12671e-312
5.65749e-312
3.24403e-312
-3.1598e-311
-6.71449e-311
-8.95651e-311
-8.34725e-311
-5.18653e-311
-3.12936e-311
-2.35201e-313
1.61588e-312
-3.8591e-312
1.45105e-311
-7.67928e-313
-3.15877e-313
-2.05507e-311
-2.85435e-312
3.88888e-312
5.35173e-312
-9.42049e-312
4.19101e-312
5.36677e-312
1.47989e-311
-1.55879e-311
-1.75505e-311
-1.95224e-311
-1.10346e-311
-1.06099e-311
-1.92968e-311
-1.30287e-311
-7.40387e-312
-3.67608e-311
-1.87883e-311
-3.71934e-312
1.45432e-311
2.10505e-311
2.37948e-311
1.49034e-311
2.38497e-311
1.63089e-311
6.49025e-312
1.59261e-311
1.32047e-311
3.09165e-311
3.11249e-311
2.60426e-311
2.5771e-311
-1.82102e-311
-3.29999e-311
-2.35239e-311
-3.39161e-311
-3.48803e-311
-2.68605e-311
-8.83064e-312
-3.16248e-311
3.68984e-312
1.08495e-311
-1.89771e-312
-1.07066e-311
-1.21167e-312
-1.17894e-311
-8.56996e-312
-5.06444e-312
1.6545e-311
7.94765e-312
1.204e-311
2.35223e-311
8.119e-312
-2.46744e-313
-2.16692e-311
-2.05149e-311
-4.36432e-311
-2.02454e-311
-1.49477e-311
-6.51714e-312
-1.08289e-311
5.81474e-312
4.18307e-312
-1.4039e-311
2.10918e-311
1.06952e-312
1.97486e-311
-3.2224e-312
-5.47353e-311
-7.21543e-311
-1.04376e-310
-8.86414e-311
-6.66064e-311
-3.1222e-311
-2.01669e-311
-1.18995e-311
3.29718e-311
2.2749e-311
1.2571e-311
5.91718e-312
-1.92013e-311
-5.4671e-312
7.93536e-312
1.72363e-311
2.72293e-313
9.29904e-312
1.19032e-311
2.49782e-312
-1.91598e-312
-2.33462e-311
-3.29333e-311
-9.0311e-312
-8.42031e-312
-1.78791e-311
1.04807e-312
-5.06754e-312
-1.21063e-311
-2.43922e-311
4.35827e-312
-1.17339e-312
1.26101e-311
1.80749e-311
1.54106e-311
3.23061e-311
1.77155e-311
1.17766e-311
3.6935e-311
2.80117e-311
4.03988e-311
2.29316e-311
2.28265e-311
6.53425e-312
-2.59418e-311
-3.19955e-311
-3.62018e-311
-2.69322e-311
-1.5065e-311
-2.48729e-311
-9.45653e-312
-2.60338e-311
6.46645e-312
1.6426e-311
2.89345e-312
5.11148e-312
1.17821e-311
-1.46493e-312
1.09555e-311
3.77117e-313
2.75112e-311
2.16606e-311
3.59901e-311
5.7501e-311
3.28865e-311
2.40028e-311
-1.80367e-312
2.45707e-312
-1.46874e-311
1.24248e-311
1.07316e-311
-4.84479e-312
-1.46671e-311
-2.11432e-311
7.48509e-312
-4.88141e-312
-3.88869e-312
-4.64365e-311
-6.79004e-311
-5.01664e-311
-1.13345e-310
-9.59043e-311
-1.1599e-310
-1.24559e-310
-1.09811e-310
-5.68564e-311
-3.51247e-311
-1.31318e-311
1.0628e-311
1.00734e-311
2.67987e-311
1.36755e-311
1.65026e-311
1.49122e-311
1.48036e-311
1.42276e-311
-9.45104e-312
1.81204e-312
-5.02504e-312
-1.89786e-311
-8.19427e-312
-3.23624e-311
-3.57134e-311
-2.07005e-311
-3.38845e-312
-8.24237e-312
-4.34645e-312
-2.03931e-311
-2.30666e-311
-2.93326e-311
-7.11428e-312
-1.06526e-311
7.45695e-312
3.4418e-312
2.29795e-311
1.1729e-311
1.04746e-311
1.39834e-311
4.39767e-311
3.83008e-311
4.58882e-311
3.02932e-311
3.84258e-311
5.80154e-312
-1.03579e-311
-2.91128e-311
-2.56715e-311
-2.3431e-311
-2.05355e-311
-1.32214e-311
-1.6522e-311
-1.06932e-311
4.83188e-312
3.31003e-311
2.72165e-311
1.79635e-311
1.3462e-311
-7.47361e-312
-1.6403e-311
-1.06586e-311
1.96773e-311
2.40654e-311
4.14634e-311
5.10862e-311
3.47831e-311
3.05873e-311
1.61591e-311
1.92505e-311
1.56635e-311
2.10938e-311
-8.29405e-312
-2.61418e-311
-3.37581e-311
-2.41828e-311
-4.65051e-311
-6.09385e-311
-4.34087e-311
-1.49175e-311
-3.98775e-311
-5.90591e-311
-3.53262e-311
-4.90878e-311
-5.063e-311
-5.74639e-311
-5.01337e-311
-3.06731e-311
-2.95331e-311
-3.085e-311
-2.03213e-312
-1.25489e-311
8.7366e-312
2.64089e-312
3.10251e-311
3.34529e-311
2.37692e-311
1.27067e-311
-1.15037e-311
-2.37995e-313
-3.93572e-313
-6.78664e-312
-3.69371e-312
-4.26869e-311
-3.83336e-311
-4.10835e-311
-3.69705e-311
-2.00979e-311
-2.56592e-311
-4.35606e-311
-3.13585e-311
-3.59579e-311
-1.34797e-311
-1.3069e-312
4.81293e-312
-8.65705e-312
2.22133e-311
8.72916e-312
2.20369e-311
2.80181e-311
5.13638e-311
5.79623e-311
6.54079e-311
3.89284e-311
5.3846e-311
9.67852e-312
-1.35086e-311
-3.35202e-311
-3.06072e-311
-6.78652e-312
1.20941e-312
-2.66365e-312
-1.79362e-311
-1.68254e-312
1.47008e-311
8.76891e-312
1.00057e-311
4.53171e-312
-1.55732e-312
-7.66145e-312
-1.09512e-311
4.33757e-312
2.58108e-311
3.01313e-311
2.60741e-311
6.09937e-311
4.97859e-311
6.66318e-311
5.25263e-311
3.74045e-311
1.23593e-311
-1.53781e-312
-2.36937e-311
-1.81357e-311
-1.65623e-311
-2.4304e-312
-1.86247e-311
-9.78452e-312
-1.19572e-311
-2.4447e-311
-2.71342e-311
-6.81579e-311
-3.42709e-311
-3.96482e-311
-6.58234e-311
-1.03749e-310
-9.44861e-311
-7.30486e-311
-5.06097e-311
-1.84393e-311
1.83154e-311
5.52618e-312
3.61271e-313
-1.24379e-311
2.99994e-311
1.60049e-311
3.95732e-311
2.72506e-311
2.73957e-312
1.0716e-311
9.12772e-312
6.37767e-313
4.32662e-312
-2.06782e-311
-4.20831e-311
-3.36164e-311
-5.03176e-311
-2.73696e-311
-3.47698e-311
-4.32854e-311
-4.19259e-311
-3.00678e-311
-1.96107e-311
-6.16784e-312
-2.46595e-312
-5.98136e-312
3.14155e-311
2.45459e-311
2.30386e-311
1.41432e-311
3.90141e-311
5.77462e-311
7.17678e-311
4.82788e-311
4.39836e-311
1.03478e-311
-6.03519e-313
-1.16498e-311
-1.77829e-311
3.2783e-312
1.00433e-313
-1.56113e-311
-1.07142e-311
-7.73177e-312
5.80428e-312
-5.9086e-314
-1.41958e-312
9.97277e-312
-3.83911e-312
7.04958e-312
2.79863e-313
1.53298e-311
1.26766e-311
8.82273e-312
3.26626e-311
6.99095e-311
4.52705e-311
8.44229e-311
4.09305e-311
3.91255e-311
1.42375e-311
7.51672e-312
-2.97446e-313
-3.08209e-312
1.01298e-311
-1.75818e-311
-3.87012e-311
-1.62438e-311
-4.87162e-311
-9.35829e-312
-1.78527e-311
-2.37453e-312
-1.09807e-310
-1.0678e-310
-1.00456e-310
-1.2206e-310
-1.24157e-310
-9.3508e-311
-5.2583e-311
-2.3783e-311
-5.38868e-312
6.23256e-312
5.2098e-312
-1.44498e-311
1.52701e-311
1.71634e-311
3.71858e-311
2.01722e-311
6.61813e-312
3.56904e-312
5.1021e-312
-1.34e-311
-1.29402e-312
-1.63044e-311
-4.34861e-311
-4.07611e-311
-4.82453e-311
-3.44282e-311
-3.2092e-311
-4.1126e-311
-1.63591e-311
-1.75668e-311
-3.54357e-311
-2.5202e-311
-1.38041e-311
1.2328e-311
5.03951e-311
3.84151e-311
2.83987e-311
2.57987e-311
4.90984e-311
5.30723e-311
6.72588e-311
5.4611e-311
4.48326e-311
3.21894e-311
-7.09442e-312
-1.41038e-311
-1.53598e-312
4.43478e-312
-3.35981e-312
-7.97588e-312
-7.68872e-312
-2.32166e-311
4.36633e-312
1.63323e-312
7.21377e-312
5.38123e-312
6.68149e-312
1.535e-311
-1.29482e-311
-5.36181e-312
-2.02317e-312
-3.66333e-312
7.53045e-312
4.74898e-311
2.57923e-311
5.93212e-311
4.07996e-311
3.34619e-311
2.16239e-311
4.37791e-312
-1.17156e-311
-2.25485e-311
-6.54707e-312
-2.41044e-311
-6.19653e-311
-4.12865e-311
-6.27992e-311
-1.75857e-311
-2.6961e-311
-3.87052e-311
1.85405e-312
-5.54387e-312
-2.59177e-311
-5.98798e-311
-8.85429e-311
-6.98863e-311
-6.4381e-311
-4.29834e-311
-3.43536e-311
-2.68836e-312
-1.92031e-311
-1.11322e-311
1.41608e-311
3.99414e-311
4.30437e-311
5.19923e-312
-7.21752e-312
5.50404e-312
1.54865e-311
1.22035e-311
1.3088e-311
-6.70718e-314
-4.61225e-311
-2.30177e-311
-2.18714e-311
-2.62095e-311
-2.35538e-311
-4.09754e-311
-2.03528e-311
-2.82235e-311
-3.69247e-311
-4.23907e-311
-1.9692e-311
1.41768e-311
4.70469e-311
4.83672e-311
3.11852e-311
4.2109e-311
5.60337e-311
5.3439e-311
6.02838e-311
5.47862e-311
6.01494e-311
5.80429e-311
1.12546e-311
7.17053e-312
1.85615e-311
1.89986e-311
1.2479e-312
6.08336e-312
-7.31346e-312
-1.21739e-311
-9.8597e-312
3.65355e-312
9.25877e-312
-3.30311e-312
-1.60926e-311
-4.13349e-312
-1.4618e-311
-7.65198e-312
9.91146e-313
5.62391e-312
7.01722e-314
2.50925e-311
1.666e-311
4.79253e-311
5.37278e-311
1.45107e-311
-3.11214e-312
-3.05812e-311
-3.72105e-311
-5.02561e-311
-2.96545e-311
-2.73899e-311
-6.86176e-311
-5.02678e-311
-6.3921e-311
-3.99516e-311
-5.57073e-311
-5.82667e-311
9.45339e-311
9.22599e-311
5.30231e-311
8.93284e-312
-1.3369e-311
-2.16419e-311
-3.1807e-311
-3.95772e-311
-2.95096e-311
-2.05997e-311
-5.4881e-311
-3.78787e-311
-3.10487e-312
1.67797e-311
1.23212e-311
-1.1258e-311
-8.26698e-312
2.58436e-312
-6.26397e-313
1.57929e-311
1.78818e-311
-5.25968e-312
-4.05525e-311
-2.72427e-311
-2.78941e-311
-1.82915e-311
-2.15345e-311
-4.42831e-311
-3.49562e-311
-2.89274e-311
-3.81135e-311
-4.74862e-311
-1.15668e-311
6.79347e-312
3.32081e-311