/*--------------------------------*- C++ -*----------------------------------*\
  =========                 |
  \\      /  F ield         | OpenFOAM: The Open Source CFD Toolbox
   \\    /   O peration     | Website:  https://openfoam.org
    \\  /    A nd           | Version:  11
     \\/     M anipulation  |
\*---------------------------------------------------------------------------*/
FoamFile
{
    format      ascii;
    class       volScalarField;
    location    "625";
    object      p;
}
// * * * * * * * * * * * * * * * * * * * * * * * * * * * * * * * * * * * * * //

dimensions      [0 2 -2 0 0 0 0];

internalField   nonuniform List<scalar> 
427520
(
1.28147
1.24937
1.22508
1.21009
1.19978
1.19198
1.18595
1.18129
1.17764
1.17476
1.17246
1.1706
1.16908
1.16783
1.16679
1.16591
1.16516
1.16452
1.16397
1.16348
1.16306
1.16269
1.16236
1.16207
1.16182
1.16159
1.16139
1.16121
1.16105
1.1609
1.16078
1.16067
1.16058
1.1605
1.16043
1.16037
1.16033
1.1603
1.16028
1.16027
1.16027
1.16028
1.1603
1.16033
1.16037
1.16043
1.1605
1.16058
1.16067
1.16078
1.1609
1.16105
1.16121
1.16139
1.16159
1.16182
1.16207
1.16236
1.16269
1.16306
1.16348
1.16397
1.16452
1.16516
1.16591
1.16679
1.16783
1.16908
1.1706
1.17246
1.17476
1.17764
1.18129
1.18595
1.19198
1.19978
1.21009
1.22508
1.24937
1.28147
1.18952
1.18988
1.18881
1.18674
1.18428
1.18177
1.17935
1.17712
1.17511
1.17332
1.17175
1.17036
1.16914
1.16808
1.16714
1.16632
1.1656
1.16497
1.16441
1.16391
1.16347
1.16308
1.16273
1.16242
1.16215
1.1619
1.16168
1.16148
1.16131
1.16116
1.16102
1.1609
1.1608
1.16071
1.16064
1.16058
1.16053
1.1605
1.16047
1.16046
1.16046
1.16047
1.1605
1.16053
1.16058
1.16064
1.16071
1.1608
1.1609
1.16102
1.16116
1.16131
1.16148
1.16168
1.1619
1.16215
1.16242
1.16273
1.16308
1.16347
1.16391
1.16441
1.16497
1.1656
1.16632
1.16714
1.16808
1.16914
1.17036
1.17175
1.17332
1.17511
1.17712
1.17935
1.18177
1.18428
1.18674
1.18881
1.18988
1.18952
1.17439
1.17632
1.17773
1.17785
1.17719
1.17618
1.17501
1.17378
1.17256
1.17139
1.17029
1.16927
1.16834
1.1675
1.16673
1.16604
1.16541
1.16485
1.16434
1.16389
1.16348
1.16311
1.16278
1.16248
1.16222
1.16198
1.16176
1.16157
1.1614
1.16124
1.16111
1.16099
1.16089
1.1608
1.16073
1.16067
1.16062
1.16058
1.16056
1.16055
1.16055
1.16056
1.16058
1.16062
1.16067
1.16073
1.1608
1.16089
1.16099
1.16111
1.16124
1.1614
1.16157
1.16176
1.16198
1.16222
1.16248
1.16278
1.16311
1.16348
1.16389
1.16434
1.16485
1.16541
1.16604
1.16673
1.1675
1.16834
1.16927
1.17029
1.17139
1.17256
1.17378
1.17501
1.17618
1.17719
1.17785
1.17773
1.17632
1.17439
1.16767
1.16914
1.17039
1.17098
1.17109
1.17091
1.17053
1.17002
1.16944
1.16881
1.16817
1.16754
1.16693
1.16634
1.16579
1.16527
1.16479
1.16435
1.16394
1.16356
1.16321
1.1629
1.16261
1.16234
1.1621
1.16189
1.16169
1.16151
1.16135
1.16121
1.16109
1.16097
1.16088
1.16079
1.16072
1.16067
1.16062
1.16059
1.16056
1.16055
1.16055
1.16056
1.16059
1.16062
1.16067
1.16072
1.16079
1.16088
1.16097
1.16109
1.16121
1.16135
1.16151
1.16169
1.16189
1.1621
1.16234
1.16261
1.1629
1.16321
1.16356
1.16394
1.16435
1.16479
1.16527
1.16579
1.16634
1.16693
1.16754
1.16817
1.16881
1.16944
1.17002
1.17053
1.17091
1.17109
1.17098
1.17039
1.16914
1.16767
1.16413
1.16515
1.16611
1.16674
1.16708
1.16721
1.16719
1.16704
1.16681
1.16651
1.16617
1.1658
1.16543
1.16505
1.16468
1.16431
1.16397
1.16364
1.16332
1.16303
1.16276
1.1625
1.16226
1.16204
1.16184
1.16166
1.16149
1.16133
1.1612
1.16107
1.16096
1.16086
1.16077
1.1607
1.16063
1.16058
1.16054
1.16051
1.16049
1.16048
1.16048
1.16049
1.16051
1.16054
1.16058
1.16063
1.1607
1.16077
1.16086
1.16096
1.16107
1.1612
1.16133
1.16149
1.16166
1.16184
1.16204
1.16226
1.1625
1.16276
1.16303
1.16332
1.16364
1.16397
1.16431
1.16468
1.16505
1.16543
1.1658
1.16617
1.16651
1.16681
1.16704
1.16719
1.16721
1.16708
1.16674
1.16611
1.16515
1.16413
1.162
1.16272
1.16343
1.16396
1.16432
1.16454
1.16466
1.16468
1.16463
1.16452
1.16437
1.16418
1.16397
1.16374
1.16351
1.16327
1.16304
1.16281
1.16259
1.16237
1.16217
1.16197
1.16179
1.16162
1.16146
1.16131
1.16117
1.16105
1.16093
1.16083
1.16073
1.16065
1.16058
1.16051
1.16046
1.16042
1.16038
1.16035
1.16034
1.16033
1.16033
1.16034
1.16035
1.16038
1.16042
1.16046
1.16051
1.16058
1.16065
1.16073
1.16083
1.16093
1.16105
1.16117
1.16131
1.16146
1.16162
1.16179
1.16197
1.16217
1.16237
1.16259
1.16281
1.16304
1.16327
1.16351
1.16374
1.16397
1.16418
1.16437
1.16452
1.16463
1.16468
1.16466
1.16454
1.16432
1.16396
1.16343
1.16272
1.162
1.16055
1.16106
1.16159
1.16202
1.16234
1.16257
1.16274
1.16283
1.16287
1.16286
1.16282
1.16274
1.16264
1.16252
1.16238
1.16224
1.16209
1.16194
1.1618
1.16165
1.16151
1.16137
1.16123
1.16111
1.16099
1.16088
1.16077
1.16067
1.16058
1.1605
1.16043
1.16036
1.1603
1.16025
1.16021
1.16017
1.16014
1.16012
1.16011
1.1601
1.1601
1.16011
1.16012
1.16014
1.16017
1.16021
1.16025
1.1603
1.16036
1.16043
1.1605
1.16058
1.16067
1.16077
1.16088
1.16099
1.16111
1.16123
1.16137
1.16151
1.16165
1.1618
1.16194
1.16209
1.16224
1.16238
1.16252
1.16264
1.16274
1.16282
1.16286
1.16287
1.16283
1.16274
1.16257
1.16234
1.16202
1.16159
1.16106
1.16055
1.15947
1.15985
1.16025
1.16059
1.16086
1.16108
1.16124
1.16137
1.16145
1.16149
1.1615
1.16149
1.16145
1.1614
1.16134
1.16126
1.16118
1.16109
1.161
1.16091
1.16081
1.16072
1.16063
1.16054
1.16046
1.16038
1.16031
1.16024
1.16017
1.16011
1.16006
1.16001
1.15996
1.15992
1.15989
1.15986
1.15984
1.15982
1.15981
1.15981
1.15981
1.15981
1.15982
1.15984
1.15986
1.15989
1.15992
1.15996
1.16001
1.16006
1.16011
1.16017
1.16024
1.16031
1.16038
1.16046
1.16054
1.16063
1.16072
1.16081
1.16091
1.161
1.16109
1.16118
1.16126
1.16134
1.1614
1.16145
1.16149
1.1615
1.16149
1.16145
1.16137
1.16124
1.16108
1.16086
1.16059
1.16025
1.15985
1.15947
1.15862
1.15891
1.15922
1.15949
1.15971
1.1599
1.16006
1.16018
1.16028
1.16034
1.16039
1.16041
1.16042
1.16041
1.16039
1.16036
1.16032
1.16027
1.16022
1.16017
1.16012
1.16006
1.16001
1.15995
1.1599
1.15985
1.1598
1.15975
1.15971
1.15967
1.15963
1.1596
1.15957
1.15954
1.15952
1.1595
1.15948
1.15947
1.15946
1.15946
1.15946
1.15946
1.15947
1.15948
1.1595
1.15952
1.15954
1.15957
1.1596
1.15963
1.15967
1.15971
1.15975
1.1598
1.15985
1.1599
1.15995
1.16001
1.16006
1.16012
1.16017
1.16022
1.16027
1.16032
1.16036
1.16039
1.16041
1.16042
1.16041
1.16039
1.16034
1.16028
1.16018
1.16006
1.1599
1.15971
1.15949
1.15922
1.15891
1.15862
1.15792
1.15815
1.15839
1.15861
1.15879
1.15895
1.15909
1.1592
1.1593
1.15937
1.15943
1.15947
1.1595
1.15952
1.15953
1.15952
1.15952
1.1595
1.15948
1.15946
1.15944
1.15941
1.15938
1.15935
1.15932
1.15929
1.15927
1.15924
1.15921
1.15919
1.15917
1.15915
1.15913
1.15911
1.1591
1.15908
1.15907
1.15907
1.15906
1.15906
1.15906
1.15906
1.15907
1.15907
1.15908
1.1591
1.15911
1.15913
1.15915
1.15917
1.15919
1.15921
1.15924
1.15927
1.15929
1.15932
1.15935
1.15938
1.15941
1.15944
1.15946
1.15948
1.1595
1.15952
1.15952
1.15953
1.15952
1.1595
1.15947
1.15943
1.15937
1.1593
1.1592
1.15909
1.15895
1.15879
1.15861
1.15839
1.15815
1.15792
1.15732
1.1575
1.1577
1.15787
1.15802
1.15816
1.15828
1.15838
1.15847
1.15854
1.15861
1.15866
1.1587
1.15873
1.15875
1.15877
1.15878
1.15878
1.15878
1.15878
1.15878
1.15877
1.15876
1.15875
1.15874
1.15873
1.15872
1.15871
1.1587
1.15869
1.15868
1.15867
1.15866
1.15865
1.15865
1.15864
1.15863
1.15863
1.15863
1.15863
1.15863
1.15863
1.15863
1.15863
1.15864
1.15865
1.15865
1.15866
1.15867
1.15868
1.15869
1.1587
1.15871
1.15872
1.15873
1.15874
1.15875
1.15876
1.15877
1.15878
1.15878
1.15878
1.15878
1.15878
1.15877
1.15875
1.15873
1.1587
1.15866
1.15861
1.15854
1.15847
1.15838
1.15828
1.15816
1.15802
1.15787
1.1577
1.1575
1.15732
1.15679
1.15694
1.15709
1.15723
1.15736
1.15747
1.15758
1.15767
1.15775
1.15782
1.15788
1.15793
1.15798
1.15801
1.15805
1.15807
1.1581
1.15811
1.15813
1.15814
1.15815
1.15816
1.15816
1.15817
1.15817
1.15817
1.15817
1.15817
1.15817
1.15817
1.15817
1.15817
1.15817
1.15817
1.15817
1.15817
1.15817
1.15817
1.15817
1.15817
1.15817
1.15817
1.15817
1.15817
1.15817
1.15817
1.15817
1.15817
1.15817
1.15817
1.15817
1.15817
1.15817
1.15817
1.15817
1.15817
1.15817
1.15816
1.15816
1.15815
1.15814
1.15813
1.15811
1.1581
1.15807
1.15805
1.15801
1.15798
1.15793
1.15788
1.15782
1.15775
1.15767
1.15758
1.15747
1.15736
1.15723
1.15709
1.15694
1.15679
1.15632
1.15643
1.15656
1.15667
1.15678
1.15687
1.15696
1.15704
1.15711
1.15717
1.15723
1.15728
1.15733
1.15737
1.1574
1.15744
1.15747
1.15749
1.15751
1.15753
1.15755
1.15757
1.15758
1.1576
1.15761
1.15762
1.15763
1.15764
1.15765
1.15766
1.15766
1.15767
1.15767
1.15768
1.15768
1.15769
1.15769
1.15769
1.15769
1.15769
1.15769
1.15769
1.15769
1.15769
1.15769
1.15768
1.15768
1.15767
1.15767
1.15766
1.15766
1.15765
1.15764
1.15763
1.15762
1.15761
1.1576
1.15758
1.15757
1.15755
1.15753
1.15751
1.15749
1.15747
1.15744
1.1574
1.15737
1.15733
1.15728
1.15723
1.15717
1.15711
1.15704
1.15696
1.15687
1.15678
1.15667
1.15656
1.15643
1.15632
1.15588
1.15597
1.15607
1.15617
1.15625
1.15633
1.15641
1.15647
1.15654
1.15659
1.15665
1.15669
1.15674
1.15678
1.15681
1.15685
1.15688
1.15691
1.15694
1.15696
1.15698
1.15701
1.15703
1.15705
1.15707
1.15708
1.1571
1.15711
1.15713
1.15714
1.15715
1.15716
1.15717
1.15718
1.15719
1.15719
1.1572
1.1572
1.15721
1.15721
1.15721
1.15721
1.1572
1.1572
1.15719
1.15719
1.15718
1.15717
1.15716
1.15715
1.15714
1.15713
1.15711
1.1571
1.15708
1.15707
1.15705
1.15703
1.15701
1.15698
1.15696
1.15694
1.15691
1.15688
1.15685
1.15681
1.15678
1.15674
1.15669
1.15665
1.15659
1.15654
1.15647
1.15641
1.15633
1.15625
1.15617
1.15607
1.15597
1.15588
1.15546
1.15554
1.15562
1.1557
1.15577
1.15584
1.1559
1.15596
1.15601
1.15606
1.15611
1.15615
1.15619
1.15623
1.15627
1.1563
1.15633
1.15636
1.15639
1.15642
1.15644
1.15647
1.15649
1.15652
1.15654
1.15656
1.15658
1.1566
1.15662
1.15663
1.15665
1.15666
1.15667
1.15668
1.15669
1.1567
1.15671
1.15671
1.15672
1.15672
1.15672
1.15672
1.15671
1.15671
1.1567
1.15669
1.15668
1.15667
1.15666
1.15665
1.15663
1.15662
1.1566
1.15658
1.15656
1.15654
1.15652
1.15649
1.15647
1.15644
1.15642
1.15639
1.15636
1.15633
1.1563
1.15627
1.15623
1.15619
1.15615
1.15611
1.15606
1.15601
1.15596
1.1559
1.15584
1.15577
1.1557
1.15562
1.15554
1.15546
1.15507
1.15513
1.1552
1.15526
1.15532
1.15537
1.15543
1.15548
1.15552
1.15557
1.15561
1.15565
1.15568
1.15572
1.15575
1.15579
1.15582
1.15585
1.15588
1.1559
1.15593
1.15596
1.15598
1.15601
1.15603
1.15605
1.15607
1.1561
1.15611
1.15613
1.15615
1.15616
1.15618
1.15619
1.1562
1.15621
1.15622
1.15622
1.15623
1.15623
1.15623
1.15623
1.15622
1.15622
1.15621
1.1562
1.15619
1.15618
1.15616
1.15615
1.15613
1.15611
1.1561
1.15607
1.15605
1.15603
1.15601
1.15598
1.15596
1.15593
1.1559
1.15588
1.15585
1.15582
1.15579
1.15575
1.15572
1.15568
1.15565
1.15561
1.15557
1.15552
1.15548
1.15543
1.15537
1.15532
1.15526
1.1552
1.15513
1.15507
1.15468
1.15473
1.15479
1.15484
1.15489
1.15494
1.15498
1.15502
1.15506
1.1551
1.15514
1.15517
1.15521
1.15524
1.15527
1.1553
1.15533
1.15536
1.15538
1.15541
1.15544
1.15546
1.15549
1.15551
1.15554
1.15556
1.15558
1.1556
1.15562
1.15564
1.15566
1.15568
1.15569
1.1557
1.15572
1.15573
1.15573
1.15574
1.15574
1.15575
1.15575
1.15574
1.15574
1.15573
1.15573
1.15572
1.1557
1.15569
1.15568
1.15566
1.15564
1.15562
1.1556
1.15558
1.15556
1.15554
1.15551
1.15549
1.15546
1.15544
1.15541
1.15538
1.15536
1.15533
1.1553
1.15527
1.15524
1.15521
1.15517
1.15514
1.1551
1.15506
1.15502
1.15498
1.15494
1.15489
1.15484
1.15479
1.15473
1.15468
1.15431
1.15435
1.1544
1.15444
1.15448
1.15452
1.15456
1.15459
1.15463
1.15466
1.15469
1.15472
1.15475
1.15478
1.15481
1.15483
1.15486
1.15489
1.15491
1.15494
1.15497
1.15499
1.15501
1.15504
1.15506
1.15508
1.15511
1.15513
1.15515
1.15517
1.15518
1.1552
1.15521
1.15523
1.15524
1.15525
1.15526
1.15526
1.15527
1.15527
1.15527
1.15527
1.15526
1.15526
1.15525
1.15524
1.15523
1.15521
1.1552
1.15518
1.15517
1.15515
1.15513
1.15511
1.15508
1.15506
1.15504
1.15501
1.15499
1.15497
1.15494
1.15491
1.15489
1.15486
1.15483
1.15481
1.15478
1.15475
1.15472
1.15469
1.15466
1.15463
1.15459
1.15456
1.15452
1.15448
1.15444
1.1544
1.15435
1.15431
1.15395
1.15398
1.15402
1.15405
1.15409
1.15412
1.15415
1.15418
1.15421
1.15424
1.15426
1.15429
1.15431
1.15434
1.15437
1.15439
1.15441
1.15444
1.15446
1.15449
1.15451
1.15453
1.15456
1.15458
1.1546
1.15462
1.15464
1.15466
1.15468
1.1547
1.15472
1.15473
1.15475
1.15476
1.15477
1.15478
1.15479
1.15479
1.1548
1.1548
1.1548
1.1548
1.15479
1.15479
1.15478
1.15477
1.15476
1.15475
1.15473
1.15472
1.1547
1.15468
1.15466
1.15464
1.15462
1.1546
1.15458
1.15456
1.15453
1.15451
1.15449
1.15446
1.15444
1.15441
1.15439
1.15437
1.15434
1.15431
1.15429
1.15426
1.15424
1.15421
1.15418
1.15415
1.15412
1.15409
1.15405
1.15402
1.15398
1.15395
1.15358
1.15361
1.15364
1.15367
1.1537
1.15373
1.15375
1.15378
1.1538
1.15383
1.15385
1.15387
1.15389
1.15392
1.15394
1.15396
1.15398
1.154
1.15403
1.15405
1.15407
1.15409
1.15411
1.15413
1.15415
1.15417
1.15419
1.15421
1.15423
1.15425
1.15426
1.15428
1.15429
1.1543
1.15431
1.15432
1.15433
1.15433
1.15434
1.15434
1.15434
1.15434
1.15433
1.15433
1.15432
1.15431
1.1543
1.15429
1.15428
1.15426
1.15425
1.15423
1.15421
1.15419
1.15417
1.15415
1.15413
1.15411
1.15409
1.15407
1.15405
1.15403
1.154
1.15398
1.15396
1.15394
1.15392
1.15389
1.15387
1.15385
1.15383
1.1538
1.15378
1.15375
1.15373
1.1537
1.15367
1.15364
1.15361
1.15358
1.15323
1.15325
1.15327
1.1533
1.15332
1.15334
1.15336
1.15338
1.1534
1.15343
1.15345
1.15346
1.15348
1.1535
1.15352
1.15354
1.15356
1.15358
1.1536
1.15362
1.15364
1.15366
1.15368
1.1537
1.15372
1.15373
1.15375
1.15377
1.15379
1.1538
1.15382
1.15383
1.15384
1.15385
1.15386
1.15387
1.15388
1.15388
1.15389
1.15389
1.15389
1.15389
1.15388
1.15388
1.15387
1.15386
1.15385
1.15384
1.15383
1.15382
1.1538
1.15379
1.15377
1.15375
1.15373
1.15372
1.1537
1.15368
1.15366
1.15364
1.15362
1.1536
1.15358
1.15356
1.15354
1.15352
1.1535
1.15348
1.15346
1.15345
1.15343
1.1534
1.15338
1.15336
1.15334
1.15332
1.1533
1.15327
1.15325
1.15323
1.15287
1.15289
1.15291
1.15293
1.15295
1.15296
1.15298
1.153
1.15302
1.15303
1.15305
1.15307
1.15308
1.1531
1.15312
1.15313
1.15315
1.15317
1.15319
1.1532
1.15322
1.15324
1.15326
1.15327
1.15329
1.15331
1.15332
1.15334
1.15335
1.15337
1.15338
1.15339
1.1534
1.15341
1.15342
1.15343
1.15344
1.15344
1.15345
1.15345
1.15345
1.15345
1.15344
1.15344
1.15343
1.15342
1.15341
1.1534
1.15339
1.15338
1.15337
1.15335
1.15334
1.15332
1.15331
1.15329
1.15327
1.15326
1.15324
1.15322
1.1532
1.15319
1.15317
1.15315
1.15313
1.15312
1.1531
1.15308
1.15307
1.15305
1.15303
1.15302
1.153
1.15298
1.15296
1.15295
1.15293
1.15291
1.15289
1.15287
1.15251
1.15253
1.15254
1.15256
1.15257
1.15259
1.1526
1.15262
1.15263
1.15265
1.15266
1.15268
1.15269
1.15271
1.15272
1.15274
1.15275
1.15277
1.15278
1.1528
1.15281
1.15283
1.15284
1.15286
1.15287
1.15289
1.1529
1.15292
1.15293
1.15294
1.15295
1.15297
1.15298
1.15298
1.15299
1.153
1.15301
1.15301
1.15301
1.15301
1.15301
1.15301
1.15301
1.15301
1.153
1.15299
1.15298
1.15298
1.15297
1.15295
1.15294
1.15293
1.15292
1.1529
1.15289
1.15287
1.15286
1.15284
1.15283
1.15281
1.1528
1.15278
1.15277
1.15275
1.15274
1.15272
1.15271
1.15269
1.15268
1.15266
1.15265
1.15263
1.15262
1.1526
1.15259
1.15257
1.15256
1.15254
1.15253
1.15251
1.15216
1.15217
1.15218
1.15219
1.15221
1.15222
1.15223
1.15224
1.15226
1.15227
1.15228
1.15229
1.1523
1.15232
1.15233
1.15234
1.15235
1.15237
1.15238
1.15239
1.15241
1.15242
1.15244
1.15245
1.15246
1.15248
1.15249
1.1525
1.15251
1.15252
1.15254
1.15255
1.15255
1.15256
1.15257
1.15258
1.15258
1.15258
1.15259
1.15259
1.15259
1.15259
1.15258
1.15258
1.15258
1.15257
1.15256
1.15255
1.15255
1.15254
1.15252
1.15251
1.1525
1.15249
1.15248
1.15246
1.15245
1.15244
1.15242
1.15241
1.15239
1.15238
1.15237
1.15235
1.15234
1.15233
1.15232
1.1523
1.15229
1.15228
1.15227
1.15226
1.15224
1.15223
1.15222
1.15221
1.15219
1.15218
1.15217
1.15216
1.1518
1.15181
1.15182
1.15183
1.15184
1.15185
1.15186
1.15187
1.15188
1.15189
1.1519
1.15191
1.15192
1.15193
1.15194
1.15195
1.15197
1.15198
1.15199
1.152
1.15201
1.15202
1.15204
1.15205
1.15206
1.15207
1.15208
1.15209
1.1521
1.15211
1.15212
1.15213
1.15214
1.15215
1.15215
1.15216
1.15216
1.15217
1.15217
1.15217
1.15217
1.15217
1.15217
1.15216
1.15216
1.15215
1.15215
1.15214
1.15213
1.15212
1.15211
1.1521
1.15209
1.15208
1.15207
1.15206
1.15205
1.15204
1.15202
1.15201
1.152
1.15199
1.15198
1.15197
1.15195
1.15194
1.15193
1.15192
1.15191
1.1519
1.15189
1.15188
1.15187
1.15186
1.15185
1.15184
1.15183
1.15182
1.15181
1.1518
1.15144
1.15145
1.15146
1.15147
1.15147
1.15148
1.15149
1.1515
1.15151
1.15152
1.15153
1.15153
1.15154
1.15155
1.15156
1.15157
1.15158
1.15159
1.1516
1.15161
1.15162
1.15163
1.15164
1.15165
1.15166
1.15167
1.15168
1.15169
1.1517
1.15171
1.15172
1.15173
1.15173
1.15174
1.15174
1.15175
1.15175
1.15176
1.15176
1.15176
1.15176
1.15176
1.15176
1.15175
1.15175
1.15174
1.15174
1.15173
1.15173
1.15172
1.15171
1.1517
1.15169
1.15168
1.15167
1.15166
1.15165
1.15164
1.15163
1.15162
1.15161
1.1516
1.15159
1.15158
1.15157
1.15156
1.15155
1.15154
1.15153
1.15153
1.15152
1.15151
1.1515
1.15149
1.15148
1.15147
1.15147
1.15146
1.15145
1.15144
1.15108
1.15109
1.1511
1.1511
1.15111
1.15112
1.15112
1.15113
1.15114
1.15114
1.15115
1.15116
1.15117
1.15117
1.15118
1.15119
1.1512
1.15121
1.15121
1.15122
1.15123
1.15124
1.15125
1.15126
1.15127
1.15128
1.15129
1.15129
1.1513
1.15131
1.15132
1.15132
1.15133
1.15134
1.15134
1.15134
1.15135
1.15135
1.15135
1.15135
1.15135
1.15135
1.15135
1.15135
1.15134
1.15134
1.15134
1.15133
1.15132
1.15132
1.15131
1.1513
1.15129
1.15129
1.15128
1.15127
1.15126
1.15125
1.15124
1.15123
1.15122
1.15121
1.15121
1.1512
1.15119
1.15118
1.15117
1.15117
1.15116
1.15115
1.15114
1.15114
1.15113
1.15112
1.15112
1.15111
1.1511
1.1511
1.15109
1.15108
1.15072
1.15073
1.15073
1.15074
1.15075
1.15075
1.15076
1.15076
1.15077
1.15077
1.15078
1.15079
1.15079
1.1508
1.1508
1.15081
1.15082
1.15083
1.15083
1.15084
1.15085
1.15086
1.15086
1.15087
1.15088
1.15089
1.15089
1.1509
1.15091
1.15091
1.15092
1.15093
1.15093
1.15094
1.15094
1.15094
1.15095
1.15095
1.15095
1.15095
1.15095
1.15095
1.15095
1.15095
1.15094
1.15094
1.15094
1.15093
1.15093
1.15092
1.15091
1.15091
1.1509
1.15089
1.15089
1.15088
1.15087
1.15086
1.15086
1.15085
1.15084
1.15083
1.15083
1.15082
1.15081
1.1508
1.1508
1.15079
1.15079
1.15078
1.15077
1.15077
1.15076
1.15076
1.15075
1.15075
1.15074
1.15073
1.15073
1.15072
1.15036
1.15037
1.15037
1.15038
1.15038
1.15038
1.15039
1.15039
1.1504
1.1504
1.15041
1.15041
1.15042
1.15042
1.15043
1.15044
1.15044
1.15045
1.15045
1.15046
1.15047
1.15047
1.15048
1.15049
1.15049
1.1505
1.15051
1.15051
1.15052
1.15052
1.15053
1.15053
1.15054
1.15054
1.15055
1.15055
1.15055
1.15055
1.15056
1.15056
1.15056
1.15056
1.15055
1.15055
1.15055
1.15055
1.15054
1.15054
1.15053
1.15053
1.15052
1.15052
1.15051
1.15051
1.1505
1.15049
1.15049
1.15048
1.15047
1.15047
1.15046
1.15045
1.15045
1.15044
1.15044
1.15043
1.15042
1.15042
1.15041
1.15041
1.1504
1.1504
1.15039
1.15039
1.15038
1.15038
1.15038
1.15037
1.15037
1.15036
1.15
1.15001
1.15001
1.15001
1.15002
1.15002
1.15002
1.15003
1.15003
1.15003
1.15004
1.15004
1.15005
1.15005
1.15006
1.15006
1.15007
1.15007
1.15008
1.15008
1.15009
1.15009
1.1501
1.1501
1.15011
1.15012
1.15012
1.15013
1.15013
1.15014
1.15014
1.15015
1.15015
1.15015
1.15016
1.15016
1.15016
1.15016
1.15016
1.15016
1.15016
1.15016
1.15016
1.15016
1.15016
1.15016
1.15015
1.15015
1.15015
1.15014
1.15014
1.15013
1.15013
1.15012
1.15012
1.15011
1.1501
1.1501
1.15009
1.15009
1.15008
1.15008
1.15007
1.15007
1.15006
1.15006
1.15005
1.15005
1.15004
1.15004
1.15003
1.15003
1.15003
1.15002
1.15002
1.15002
1.15001
1.15001
1.15001
1.15
1.14964
1.14964
1.14964
1.14965
1.14965
1.14965
1.14966
1.14966
1.14966
1.14967
1.14967
1.14967
1.14968
1.14968
1.14968
1.14969
1.14969
1.1497
1.1497
1.14971
1.14971
1.14971
1.14972
1.14972
1.14973
1.14973
1.14974
1.14974
1.14975
1.14975
1.14976
1.14976
1.14976
1.14977
1.14977
1.14977
1.14977
1.14977
1.14977
1.14977
1.14977
1.14977
1.14977
1.14977
1.14977
1.14977
1.14977
1.14976
1.14976
1.14976
1.14975
1.14975
1.14974
1.14974
1.14973
1.14973
1.14972
1.14972
1.14971
1.14971
1.14971
1.1497
1.1497
1.14969
1.14969
1.14968
1.14968
1.14968
1.14967
1.14967
1.14967
1.14966
1.14966
1.14966
1.14965
1.14965
1.14965
1.14964
1.14964
1.14964
1.14928
1.14928
1.14928
1.14928
1.14928
1.14929
1.14929
1.14929
1.14929
1.1493
1.1493
1.1493
1.1493
1.14931
1.14931
1.14931
1.14932
1.14932
1.14933
1.14933
1.14933
1.14934
1.14934
1.14935
1.14935
1.14935
1.14936
1.14936
1.14937
1.14937
1.14937
1.14938
1.14938
1.14938
1.14938
1.14938
1.14939
1.14939
1.14939
1.14939
1.14939
1.14939
1.14939
1.14939
1.14938
1.14938
1.14938
1.14938
1.14938
1.14937
1.14937
1.14937
1.14936
1.14936
1.14935
1.14935
1.14935
1.14934
1.14934
1.14933
1.14933
1.14933
1.14932
1.14932
1.14931
1.14931
1.14931
1.1493
1.1493
1.1493
1.1493
1.14929
1.14929
1.14929
1.14929
1.14928
1.14928
1.14928
1.14928
1.14928
1.14891
1.14891
1.14891
1.14892
1.14892
1.14892
1.14892
1.14892
1.14893
1.14893
1.14893
1.14893
1.14893
1.14894
1.14894
1.14894
1.14895
1.14895
1.14895
1.14896
1.14896
1.14896
1.14897
1.14897
1.14897
1.14898
1.14898
1.14898
1.14899
1.14899
1.14899
1.14899
1.149
1.149
1.149
1.149
1.149
1.149
1.149
1.149
1.149
1.149
1.149
1.149
1.149
1.149
1.149
1.149
1.14899
1.14899
1.14899
1.14899
1.14898
1.14898
1.14898
1.14897
1.14897
1.14897
1.14896
1.14896
1.14896
1.14895
1.14895
1.14895
1.14894
1.14894
1.14894
1.14893
1.14893
1.14893
1.14893
1.14893
1.14892
1.14892
1.14892
1.14892
1.14892
1.14891
1.14891
1.14891
1.14855
1.14855
1.14855
1.14855
1.14855
1.14855
1.14855
1.14856
1.14856
1.14856
1.14856
1.14856
1.14856
1.14857
1.14857
1.14857
1.14857
1.14858
1.14858
1.14858
1.14858
1.14859
1.14859
1.14859
1.1486
1.1486
1.1486
1.1486
1.14861
1.14861
1.14861
1.14861
1.14862
1.14862
1.14862
1.14862
1.14862
1.14862
1.14862
1.14862
1.14862
1.14862
1.14862
1.14862
1.14862
1.14862
1.14862
1.14862
1.14861
1.14861
1.14861
1.14861
1.1486
1.1486
1.1486
1.1486
1.14859
1.14859
1.14859
1.14858
1.14858
1.14858
1.14858
1.14857
1.14857
1.14857
1.14857
1.14856
1.14856
1.14856
1.14856
1.14856
1.14856
1.14855
1.14855
1.14855
1.14855
1.14855
1.14855
1.14855
1.14818
1.14818
1.14818
1.14818
1.14818
1.14818
1.14819
1.14819
1.14819
1.14819
1.14819
1.14819
1.14819
1.1482
1.1482
1.1482
1.1482
1.1482
1.14821
1.14821
1.14821
1.14821
1.14822
1.14822
1.14822
1.14822
1.14822
1.14823
1.14823
1.14823
1.14823
1.14824
1.14824
1.14824
1.14824
1.14824
1.14824
1.14824
1.14824
1.14824
1.14824
1.14824
1.14824
1.14824
1.14824
1.14824
1.14824
1.14824
1.14824
1.14823
1.14823
1.14823
1.14823
1.14822
1.14822
1.14822
1.14822
1.14822
1.14821
1.14821
1.14821
1.14821
1.1482
1.1482
1.1482
1.1482
1.1482
1.14819
1.14819
1.14819
1.14819
1.14819
1.14819
1.14819
1.14818
1.14818
1.14818
1.14818
1.14818
1.14818
1.14781
1.14781
1.14781
1.14781
1.14782
1.14782
1.14782
1.14782
1.14782
1.14782
1.14782
1.14782
1.14782
1.14783
1.14783
1.14783
1.14783
1.14783
1.14783
1.14784
1.14784
1.14784
1.14784
1.14784
1.14785
1.14785
1.14785
1.14785
1.14785
1.14786
1.14786
1.14786
1.14786
1.14786
1.14786
1.14786
1.14786
1.14786
1.14786
1.14786
1.14786
1.14786
1.14786
1.14786
1.14786
1.14786
1.14786
1.14786
1.14786
1.14786
1.14786
1.14785
1.14785
1.14785
1.14785
1.14785
1.14784
1.14784
1.14784
1.14784
1.14784
1.14783
1.14783
1.14783
1.14783
1.14783
1.14783
1.14782
1.14782
1.14782
1.14782
1.14782
1.14782
1.14782
1.14782
1.14782
1.14781
1.14781
1.14781
1.14781
1.14745
1.14745
1.14745
1.14745
1.14745
1.14745
1.14745
1.14745
1.14745
1.14745
1.14745
1.14745
1.14745
1.14746
1.14746
1.14746
1.14746
1.14746
1.14746
1.14746
1.14747
1.14747
1.14747
1.14747
1.14747
1.14747
1.14747
1.14748
1.14748
1.14748
1.14748
1.14748
1.14748
1.14748
1.14749
1.14749
1.14749
1.14749
1.14749
1.14749
1.14749
1.14749
1.14749
1.14749
1.14749
1.14749
1.14748
1.14748
1.14748
1.14748
1.14748
1.14748
1.14748
1.14747
1.14747
1.14747
1.14747
1.14747
1.14747
1.14747
1.14746
1.14746
1.14746
1.14746
1.14746
1.14746
1.14746
1.14745
1.14745
1.14745
1.14745
1.14745
1.14745
1.14745
1.14745
1.14745
1.14745
1.14745
1.14745
1.14745
1.14708
1.14708
1.14708
1.14708
1.14708
1.14708
1.14708
1.14708
1.14708
1.14708
1.14708
1.14708
1.14708
1.14708
1.14709
1.14709
1.14709
1.14709
1.14709
1.14709
1.14709
1.14709
1.1471
1.1471
1.1471
1.1471
1.1471
1.1471
1.1471
1.1471
1.14711
1.14711
1.14711
1.14711
1.14711
1.14711
1.14711
1.14711
1.14711
1.14711
1.14711
1.14711
1.14711
1.14711
1.14711
1.14711
1.14711
1.14711
1.14711
1.14711
1.1471
1.1471
1.1471
1.1471
1.1471
1.1471
1.1471
1.1471
1.14709
1.14709
1.14709
1.14709
1.14709
1.14709
1.14709
1.14709
1.14708
1.14708
1.14708
1.14708
1.14708
1.14708
1.14708
1.14708
1.14708
1.14708
1.14708
1.14708
1.14708
1.14708
1.14671
1.14671
1.14671
1.14671
1.14671
1.14671
1.14671
1.14671
1.14671
1.14671
1.14671
1.14671
1.14671
1.14671
1.14671
1.14672
1.14672
1.14672
1.14672
1.14672
1.14672
1.14672
1.14672
1.14672
1.14673
1.14673
1.14673
1.14673
1.14673
1.14673
1.14673
1.14673
1.14673
1.14673
1.14673
1.14674
1.14674
1.14674
1.14674
1.14674
1.14674
1.14674
1.14674
1.14674
1.14674
1.14673
1.14673
1.14673
1.14673
1.14673
1.14673
1.14673
1.14673
1.14673
1.14673
1.14673
1.14672
1.14672
1.14672
1.14672
1.14672
1.14672
1.14672
1.14672
1.14672
1.14671
1.14671
1.14671
1.14671
1.14671
1.14671
1.14671
1.14671
1.14671
1.14671
1.14671
1.14671
1.14671
1.14671
1.14671
1.14634
1.14634
1.14634
1.14634
1.14634
1.14634
1.14634
1.14634
1.14634
1.14634
1.14634
1.14634
1.14634
1.14634
1.14634
1.14634
1.14635
1.14635
1.14635
1.14635
1.14635
1.14635
1.14635
1.14635
1.14635
1.14635
1.14635
1.14636
1.14636
1.14636
1.14636
1.14636
1.14636
1.14636
1.14636
1.14636
1.14636
1.14636
1.14636
1.14636
1.14636
1.14636
1.14636
1.14636
1.14636
1.14636
1.14636
1.14636
1.14636
1.14636
1.14636
1.14636
1.14636
1.14635
1.14635
1.14635
1.14635
1.14635
1.14635
1.14635
1.14635
1.14635
1.14635
1.14635
1.14634
1.14634
1.14634
1.14634
1.14634
1.14634
1.14634
1.14634
1.14634
1.14634
1.14634
1.14634
1.14634
1.14634
1.14634
1.14634
1.14597
1.14597
1.14597
1.14597
1.14597
1.14597
1.14597
1.14597
1.14597
1.14597
1.14597
1.14597
1.14597
1.14597
1.14597
1.14597
1.14597
1.14597
1.14598
1.14598
1.14598
1.14598
1.14598
1.14598
1.14598
1.14598
1.14598
1.14598
1.14598
1.14598
1.14598
1.14598
1.14599
1.14599
1.14599
1.14599
1.14599
1.14599
1.14599
1.14599
1.14599
1.14599
1.14599
1.14599
1.14599
1.14599
1.14599
1.14599
1.14598
1.14598
1.14598
1.14598
1.14598
1.14598
1.14598
1.14598
1.14598
1.14598
1.14598
1.14598
1.14598
1.14598
1.14597
1.14597
1.14597
1.14597
1.14597
1.14597
1.14597
1.14597
1.14597
1.14597
1.14597
1.14597
1.14597
1.14597
1.14597
1.14597
1.14597
1.14597
1.1456
1.1456
1.1456
1.1456
1.1456
1.1456
1.1456
1.1456
1.1456
1.1456
1.1456
1.1456
1.1456
1.1456
1.1456
1.1456
1.1456
1.1456
1.1456
1.1456
1.14561
1.14561
1.14561
1.14561
1.14561
1.14561
1.14561
1.14561
1.14561
1.14561
1.14561
1.14561
1.14561
1.14561
1.14561
1.14561
1.14561
1.14561
1.14561
1.14561
1.14561
1.14561
1.14561
1.14561
1.14561
1.14561
1.14561
1.14561
1.14561
1.14561
1.14561
1.14561
1.14561
1.14561
1.14561
1.14561
1.14561
1.14561
1.14561
1.14561
1.1456
1.1456
1.1456
1.1456
1.1456
1.1456
1.1456
1.1456
1.1456
1.1456
1.1456
1.1456
1.1456
1.1456
1.1456
1.1456
1.1456
1.1456
1.1456
1.1456
1.14523
1.14523
1.14523
1.14523
1.14523
1.14523
1.14523
1.14523
1.14523
1.14523
1.14523
1.14523
1.14523
1.14523
1.14523
1.14523
1.14523
1.14523
1.14523
1.14523
1.14523
1.14523
1.14523
1.14524
1.14524
1.14524
1.14524
1.14524
1.14524
1.14524
1.14524
1.14524
1.14524
1.14524
1.14524
1.14524
1.14524
1.14524
1.14524
1.14524
1.14524
1.14524
1.14524
1.14524
1.14524
1.14524
1.14524
1.14524
1.14524
1.14524
1.14524
1.14524
1.14524
1.14524
1.14524
1.14524
1.14524
1.14523
1.14523
1.14523
1.14523
1.14523
1.14523
1.14523
1.14523
1.14523
1.14523
1.14523
1.14523
1.14523
1.14523
1.14523
1.14523
1.14523
1.14523
1.14523
1.14523
1.14523
1.14523
1.14523
1.14486
1.14486
1.14486
1.14486
1.14486
1.14486
1.14486
1.14486
1.14486
1.14486
1.14486
1.14486
1.14486
1.14486
1.14486
1.14486
1.14486
1.14486
1.14486
1.14486
1.14486
1.14486
1.14486
1.14486
1.14486
1.14486
1.14486
1.14486
1.14487
1.14487
1.14487
1.14487
1.14487
1.14487
1.14487
1.14487
1.14487
1.14487
1.14487
1.14487
1.14487
1.14487
1.14487
1.14487
1.14487
1.14487
1.14487
1.14487
1.14487
1.14487
1.14487
1.14487
1.14486
1.14486
1.14486
1.14486
1.14486
1.14486
1.14486
1.14486
1.14486
1.14486
1.14486
1.14486
1.14486
1.14486
1.14486
1.14486
1.14486
1.14486
1.14486
1.14486
1.14486
1.14486
1.14486
1.14486
1.14486
1.14486
1.14486
1.14486
1.14449
1.14449
1.14449
1.14449
1.14449
1.14449
1.14449
1.14449
1.14449
1.14449
1.14449
1.14449
1.14449
1.14449
1.14449
1.14449
1.14449
1.14449
1.14449
1.14449
1.14449
1.14449
1.14449
1.14449
1.14449
1.14449
1.14449
1.14449
1.14449
1.14449
1.14449
1.14449
1.14449
1.14449
1.14449
1.14449
1.14449
1.14449
1.14449
1.14449
1.14449
1.14449
1.14449
1.14449
1.14449
1.14449
1.14449
1.14449
1.14449
1.14449
1.14449
1.14449
1.14449
1.14449
1.14449
1.14449
1.14449
1.14449
1.14449
1.14449
1.14449
1.14449
1.14449
1.14449
1.14449
1.14449
1.14449
1.14449
1.14449
1.14449
1.14449
1.14449
1.14449
1.14449
1.14449
1.14449
1.14449
1.14449
1.14449
1.14449
1.14412
1.14412
1.14412
1.14412
1.14412
1.14412
1.14412
1.14412
1.14412
1.14412
1.14412
1.14412
1.14412
1.14412
1.14412
1.14412
1.14412
1.14412
1.14412
1.14412
1.14412
1.14412
1.14412
1.14412
1.14412
1.14412
1.14412
1.14412
1.14412
1.14412
1.14412
1.14412
1.14412
1.14412
1.14412
1.14412
1.14412
1.14412
1.14412
1.14412
1.14412
1.14412
1.14412
1.14412
1.14412
1.14412
1.14412
1.14412
1.14412
1.14412
1.14412
1.14412
1.14412
1.14412
1.14412
1.14412
1.14412
1.14412
1.14412
1.14412
1.14412
1.14412
1.14412
1.14412
1.14412
1.14412
1.14412
1.14412
1.14412
1.14412
1.14412
1.14412
1.14412
1.14412
1.14412
1.14412
1.14412
1.14412
1.14412
1.14412
1.14375
1.14375
1.14375
1.14375
1.14375
1.14375
1.14375
1.14375
1.14375
1.14375
1.14375
1.14375
1.14375
1.14375
1.14375
1.14375
1.14375
1.14375
1.14375
1.14375
1.14375
1.14375
1.14375
1.14375
1.14375
1.14375
1.14375
1.14375
1.14375