/*--------------------------------*- C++ -*----------------------------------*\
  =========                 |
  \\      /  F ield         | OpenFOAM: The Open Source CFD Toolbox
   \\    /   O peration     | Website:  https://openfoam.org
    \\  /    A nd           | Version:  11
     \\/     M anipulation  |
\*---------------------------------------------------------------------------*/
FoamFile
{
    format      ascii;
    class       volScalarField;
    location    "100";
    object      C;
}
// * * * * * * * * * * * * * * * * * * * * * * * * * * * * * * * * * * * * * //

dimensions      [0 0 0 1 0 0 0];

internalField   nonuniform List<scalar> 
427520
(
4.18256e-312
1.296e-312
-8.94932e-312
-1.97817e-311
5.91374e-313
2.29883e-312
-1.98447e-311
-1.45867e-311
-6.48985e-312
5.62278e-312
6.38068e-312
6.7558e-312
1.99208e-311
1.8777e-311
1.61648e-311
-1.03549e-312
-3.95014e-312
1.63964e-312
-1.00291e-311
-1.97464e-311
8.6737e-312
-8.25166e-312
1.70512e-314
9.88912e-313
2.2276e-312
6.95484e-312
-3.09001e-311
-2.60184e-311
1.27593e-311
2.40542e-311
2.10925e-312
2.19376e-311
1.46087e-311
6.17215e-312
-7.70263e-312
-4.70909e-312
1.493e-311
2.59479e-311
1.65892e-311
2.36419e-312
9.76481e-312
-5.16468e-312
-3.29989e-312
1.128e-312
-1.08743e-311
7.34946e-312
1.20548e-311
1.17443e-311
3.49109e-312
1.96458e-311
5.56949e-313
-6.23342e-312
4.7429e-312
2.05475e-311
2.51235e-311
3.25069e-311
2.17284e-311
1.13136e-311
-2.47806e-312
4.18398e-312
-1.34092e-311
-2.17796e-311
-3.38362e-311
-1.31862e-311
-1.00147e-311
-7.92991e-312
-6.39672e-312
1.53199e-312
1.55448e-311
1.9024e-311
3.01126e-311
3.27543e-311
3.91717e-312
5.10208e-312
-1.12175e-311
-1.8417e-311
-9.8207e-313
1.02924e-312
-1.6469e-311
-2.24292e-311
-5.5446e-311
-3.91689e-311
-4.67189e-311
-3.38359e-311
-1.54571e-311
-9.54798e-312
-2.01463e-311
-3.54283e-311
-1.56402e-311
1.61807e-311
3.72449e-311
3.61091e-311
3.02138e-311
3.76806e-311
4.41797e-311
1.44459e-311
2.15004e-312
2.55397e-311
-2.69941e-311
-2.34013e-311
-1.05448e-312
-1.5803e-311
-3.02944e-311
-3.44429e-311
-2.87856e-311
-5.65183e-311
-6.55268e-311
-2.50507e-311
6.17435e-311
6.05404e-311
7.15535e-311
6.58895e-311
5.00287e-311
7.12643e-311
3.23913e-311
-1.44337e-311
-1.78232e-312
1.22251e-311
-9.82154e-312
1.69457e-312
1.69324e-311
2.57273e-311
2.98848e-311
-1.24904e-312
2.68965e-311
3.82712e-311
3.538e-311
4.76874e-311
2.51572e-311
3.58431e-312
3.81156e-312
-1.91928e-311
1.606e-311
2.94644e-311
3.46907e-311
5.2171e-311
5.61873e-311
4.71784e-311
1.37569e-311
-4.01923e-311
-5.45965e-311
-3.93908e-311
-2.59969e-311
-5.96419e-312
-3.88113e-312
7.14497e-312
2.05081e-311
4.54597e-311
6.53325e-311
7.35901e-311
7.05384e-311
4.52993e-311
1.73173e-311
-1.54617e-311
-1.83001e-311
3.00292e-312
8.16883e-312
-4.00796e-311
-7.16567e-311
-6.19458e-311
-1.30217e-310
-8.54302e-311
-4.34955e-311
-2.46013e-311
-2.46539e-311
-3.70969e-311
-4.8168e-311
-2.23587e-311
-1.56445e-311
1.65064e-311
1.40564e-311
7.11151e-312
1.15551e-312
3.61722e-311
3.63709e-312
-2.29032e-311
-2.4901e-311
-3.00663e-311
-4.71983e-311
-2.00454e-312
2.80066e-311
1.64721e-311
-1.73617e-311
-2.83236e-311
-4.37861e-311
-4.78665e-311
-6.54527e-311
-3.57292e-311
3.25109e-311
2.39977e-311
2.48971e-311
6.99814e-311
7.7256e-311
6.50234e-311
4.8161e-311
-4.13267e-311
-6.39058e-311
-2.2546e-311
-3.50625e-311
1.06263e-311
5.29539e-311
3.71536e-311
-3.15733e-312
-3.71942e-311
5.63294e-312
6.06823e-311
6.4665e-311
2.873e-311
-1.46719e-311
-2.00018e-311
-4.57887e-311
-7.62203e-311
-2.5455e-311
-2.92156e-311
7.54948e-311
1.35634e-310
1.68991e-310
1.40252e-310
7.88818e-311
6.46061e-311
3.79673e-311
7.08322e-312
9.3344e-312
4.62322e-312
-7.99933e-312
-2.05783e-311
-5.892e-312
-1.49346e-311
-3.38862e-312
3.82984e-311
6.926e-311
5.58559e-311
4.91477e-311
2.49625e-311
4.25597e-311
6.5741e-311
7.6097e-311
6.13068e-311
-2.23017e-311
-7.85789e-312
-8.85456e-311
-3.25281e-311
-3.97474e-311
-2.1883e-311
-1.53462e-311
-4.19727e-311
-4.55656e-311
-4.1701e-311
-2.93517e-311
1.54032e-311
-1.17263e-311
-4.42674e-311
-4.07152e-311
-2.05077e-312
-1.75739e-311
-5.79703e-311
-4.58239e-311
-5.94045e-311
-6.21589e-311
-5.43343e-312
3.14698e-311
4.44765e-311
1.50959e-311
-1.11371e-311
-9.71473e-312
-8.1612e-312
-1.71837e-311
-1.46382e-311
1.60818e-311
3.60362e-311
2.38358e-311
5.28613e-311
8.35146e-311
9.79356e-311
3.5714e-311
-3.59015e-311
-4.9716e-311
-1.59787e-311
-4.10993e-311
-1.18614e-311
2.51008e-313
-2.04523e-311
-9.45873e-311
-8.99642e-311
3.08342e-312
8.52359e-311
8.6325e-311
1.52486e-311
-4.57636e-311
-1.27481e-311
-3.41576e-311
-3.10351e-311
-4.48868e-311
-8.13448e-312
5.89706e-311
1.36215e-310
1.98033e-310
1.63443e-310
1.32893e-310
6.98559e-311
-1.73066e-312
-1.38556e-312
9.45493e-312
-2.75349e-311
-2.36088e-311
-2.69892e-311
-3.69921e-311
-3.71241e-311
-4.59668e-312
5.3044e-311
8.99998e-311
8.71759e-311
7.50994e-311
5.14573e-311
7.82741e-311
1.26754e-310
1.87549e-310
1.09908e-310
4.02231e-311
1.05823e-311
4.86949e-311
1.87405e-312
1.08549e-311
-1.36588e-311
-5.01321e-311
-2.47298e-311
-3.04417e-311
-6.34173e-311
-2.79153e-311
1.78884e-311
-2.04059e-311
-2.63097e-311
-2.30614e-311
-3.89916e-311
-2.4551e-311
-3.17742e-311
-4.66219e-311
-6.93829e-311
-8.19035e-311
-7.96197e-311
-3.52726e-311
3.68185e-313
3.06633e-312
3.84572e-311
5.1508e-311
4.39426e-311
1.49586e-311
4.05292e-311
3.83867e-311
2.62985e-311
3.48551e-311
5.47845e-311
9.83604e-311
1.00658e-310
5.93268e-311
2.42323e-311
-1.62964e-311
-3.18771e-311
-6.84565e-311
-2.9389e-311
-1.26165e-311
-2.89821e-311
-8.79115e-311
-5.39226e-311
3.62021e-311
5.82158e-311
5.37347e-311
-2.99862e-311
-1.21044e-311
3.59252e-311
-2.24299e-311
-5.17673e-311
-1.15944e-310
-1.17193e-310
-9.66924e-311
-4.91693e-311
2.74253e-311
6.01635e-311
3.21193e-311
-4.48684e-311
-8.66567e-311
-1.12252e-310
-1.43419e-310
-1.35873e-310
-1.55159e-310
-1.44737e-310
-1.80321e-310
-2.08154e-310
-1.25257e-310
-2.48726e-311
1.7491e-311
7.97677e-311
6.30216e-311
6.92392e-312
1.99903e-311
5.60119e-311
7.852e-311
1.66652e-311
-4.59041e-311
-1.25596e-310
1.98561e-310
1.7619e-310
1.09473e-310
3.26966e-311
1.07306e-311
-5.2529e-311
-5.87913e-311
-3.21533e-311
-3.32434e-312
-1.59343e-311
-3.38238e-311
-4.58782e-311
-7.33926e-311
-5.91325e-311
-4.10301e-311
-5.22973e-311
-5.35503e-311
-6.84503e-311
-1.11759e-310
-1.41886e-310
-1.15126e-310
-7.06931e-311
-2.09047e-311
3.25539e-311
6.13302e-311
9.6917e-311
9.09904e-311
6.65545e-311
4.77564e-311
5.70953e-312
1.002e-311
4.5376e-311
7.17576e-311
9.31208e-311
1.1237e-310
6.54438e-311
2.90831e-311
-1.77307e-311
-2.95121e-311
-7.98294e-313
2.29566e-311
1.88295e-311
-1.09194e-311
-7.07484e-312
2.98092e-311
3.58874e-311
8.02044e-311
4.49628e-311
7.56006e-311
1.09512e-310
6.97379e-311
1.70681e-311
-8.88745e-311
-9.8685e-311
-1.24502e-310
-1.20548e-310
-9.26341e-311
-3.43654e-311
-2.46934e-312
-7.22102e-311
-1.17507e-310
-1.83249e-310
-1.87127e-310
-1.5714e-310
-1.43472e-310
-1.94734e-310
-2.69119e-310
-3.46383e-310
-3.62722e-310
-2.86709e-310
-1.52999e-310
-7.30285e-311
-1.3117e-310
-1.98118e-310
-1.13937e-310
-9.3627e-311
-1.16787e-310
-2.10789e-310
-2.84275e-310
-2.69733e-310
3.95674e-310
3.25775e-310
1.92826e-310
1.58947e-310
3.03187e-311
-3.29143e-311
-5.2924e-311
-5.27663e-313
5.76941e-312
-9.05294e-312
-4.52769e-311
-7.62004e-311
-1.01689e-310
-1.11479e-310
-9.81841e-311
-8.16625e-311
-5.57324e-311
-8.7727e-311
-1.22108e-310
-1.43029e-310
-1.6104e-310
-1.33284e-310
-6.1605e-311
-1.6168e-311
5.01542e-311
1.01564e-310
1.05039e-310
8.85721e-311
3.42776e-311
7.78088e-313
8.84479e-312
3.41133e-311
2.52652e-311
7.45857e-311
1.70123e-310
1.19491e-310
5.61104e-311
2.59466e-311
7.22117e-312
1.58833e-311
3.90503e-311
6.33463e-311
7.36066e-311
1.83527e-311
3.23663e-311
3.54649e-311
-1.37758e-311
-4.46249e-311
1.50895e-311
4.05994e-311
6.7361e-311
2.23492e-311
-3.15458e-311
-1.53002e-311
-4.7837e-311
-6.77356e-311
2.62197e-311
1.70231e-310
2.06468e-310
1.23334e-310
1.14588e-310
5.9154e-311
3.04701e-311
3.02629e-311
2.49917e-311
-1.39808e-311
-1.2606e-310
-2.5981e-310
-3.1561e-310
-2.84274e-310
-1.82207e-310
-1.33021e-310
-1.97462e-310
-2.03588e-310
-1.66432e-310
-1.15869e-310
-1.56572e-310
-1.85359e-310
-2.23666e-310
-2.12904e-310
3.33787e-310
2.90725e-310
3.09646e-310
1.93925e-310
1.05109e-310
6.66671e-311
6.6241e-311
9.59231e-311
1.00292e-310
4.76639e-311
6.22639e-312
-3.88417e-311
-9.5286e-311
-1.45806e-310
-1.67388e-310
-9.93932e-311
-7.98954e-311
-7.50284e-311
-1.05843e-310
-1.51757e-310
-1.77424e-310
-1.73461e-310
-1.34788e-310
-7.17543e-311
-2.7121e-311
1.90862e-311
7.09886e-311
5.63554e-311
1.82737e-311
-6.13927e-312
3.48982e-311
1.94868e-311
2.84484e-311
3.90172e-311
1.09396e-310
6.38079e-311
4.68041e-311
2.07388e-312
-6.59565e-312
-4.16143e-311
-6.50356e-312
7.38957e-311
7.87648e-311
1.24501e-310
1.31778e-310
6.00687e-311
-2.0015e-311
-5.3455e-311
-9.80358e-311
-8.77229e-311
-7.76391e-311
-7.48336e-311
-4.64148e-311
-7.99045e-313
-6.89585e-311
-5.48787e-311
8.24324e-311
2.32053e-310
2.77564e-310
2.89819e-310
2.45361e-310
2.38081e-310
2.54306e-310
2.17679e-310
2.05034e-310
1.3228e-310
9.79204e-311
-2.68891e-311
-1.34561e-310
-2.17387e-310
-2.20717e-310
-2.08828e-310
-2.60805e-310
-2.66561e-310
-1.84189e-310
-5.43573e-311
2.47078e-311
8.39532e-311
1.11793e-310
6.03555e-311
4.25212e-310
3.45626e-310
3.00645e-310
2.32211e-310
1.81686e-310
1.06404e-310
1.87932e-310
1.89268e-310
1.59115e-310
1.18642e-310
6.43364e-311
2.23719e-311
-5.51234e-311
-1.39356e-310
-1.62009e-310
-1.47408e-310
-1.29263e-310
-6.88202e-311
-9.27169e-311
-1.46215e-310
-1.80094e-310
-1.97125e-310
-1.70427e-310
-1.27822e-310
-5.79201e-311
2.85206e-311
4.35553e-311
4.64305e-311
2.20472e-311
1.4406e-311
3.96137e-311
3.20937e-311
-3.29365e-311
-3.42196e-311
8.26646e-311
5.25012e-311
5.78338e-311
-1.69736e-311
-2.33875e-311
-3.43944e-311
-7.86595e-312
2.78543e-311
5.71796e-311
1.27123e-310
1.45968e-310
1.19788e-310
2.59291e-311
-1.30723e-311
-6.30096e-311
-1.20394e-310
-1.04023e-310
-9.57602e-311
-6.24906e-311
-5.75027e-311
-1.19138e-310
-1.34367e-310
7.70123e-312
1.39223e-310
2.07654e-310
1.95581e-310
1.88534e-310
1.86617e-310
1.7098e-310
2.11365e-310
2.03738e-310
1.6736e-310
1.86875e-310
1.41707e-310
3.89909e-311
-1.34909e-310
-2.24233e-310
-2.84996e-310
-3.43792e-310
-3.77243e-310
-3.46974e-310
-2.3521e-310
-1.10623e-310
8.91573e-311
1.29316e-310
8.0588e-311
1.63234e-310
1.48589e-310
7.96655e-311
3.48126e-311
5.38039e-312
3.22626e-312
6.97559e-311
1.05798e-310
1.00678e-310
8.85045e-311
6.76092e-311
7.70378e-311
2.8143e-311
-3.3615e-311
-1.07598e-310
-1.3119e-310
-1.58106e-310
-1.11329e-310
-1.14804e-310
-1.22134e-310
-1.48389e-310
-1.84179e-310
-1.94154e-310
-1.30688e-310
-6.53536e-311
-3.67095e-312
3.29274e-311
3.24725e-311
8.40595e-312
-6.97891e-312
4.02397e-311
2.72565e-311
-6.53285e-311
-3.99591e-311
5.92032e-311
1.00224e-310
1.09632e-310
1.01423e-310
7.66311e-311
1.13559e-310
9.77455e-311
4.91151e-311
5.97872e-311
1.65855e-310
2.10625e-310
1.86467e-310
1.12808e-310
1.20046e-310
5.77358e-311
-3.24362e-312
-6.68994e-311
-1.02803e-310
-3.42422e-311
-7.89048e-311
-1.56086e-310
-7.84872e-311
-1.00725e-311
7.0421e-311
1.53817e-310
1.51328e-310
1.57937e-310
1.41143e-310
7.6182e-311
1.25576e-310
1.39755e-310
1.50452e-310
1.9361e-310
2.44015e-310
1.90887e-310
4.01976e-311
-6.37658e-311
-1.0296e-312
-5.85135e-311
-1.43275e-310
-2.81839e-310
-3.73079e-310
-2.63005e-310
-1.70179e-310
-8.48132e-311
-5.40809e-311
1.65192e-311
-5.56484e-311
-4.47096e-311
-7.18933e-311
-1.64678e-310
-1.17655e-310
-6.33479e-311
-2.3099e-311
4.43012e-311
3.92112e-311
9.76037e-311
1.00176e-310
8.94448e-311
2.49654e-311
-2.15948e-311
-7.36263e-311
-1.12891e-310
-7.29456e-311
-7.10164e-311
-7.78566e-311
-1.18505e-310
-1.93088e-310
-2.19806e-310
-1.79425e-310
-1.21539e-310
-6.6871e-311
-1.83024e-311
2.85921e-311
5.91291e-312
-2.14842e-313
3.40449e-311
-3.05969e-312
-5.94592e-311
-5.32708e-311
3.75073e-311
9.97873e-311
1.3527e-310
1.68133e-310
1.77597e-310
2.23039e-310
1.67307e-310
1.00938e-310
8.23715e-311
1.98842e-310
2.4782e-310
2.23234e-310
2.0599e-310
2.23589e-310
1.91886e-310
9.95151e-311
1.58411e-311
-7.96783e-311
-6.69136e-311
-1.10936e-310
-1.63194e-310
-1.19415e-310
-1.14515e-310
-3.88695e-311
7.19965e-311
1.19824e-310
1.78521e-310
1.80686e-310
1.32062e-310
1.31844e-310
1.12213e-310
1.72606e-310
2.09846e-310
3.23429e-310
3.63999e-310
2.33072e-310
1.68381e-310
1.52564e-310
1.59409e-310
8.46652e-311
-3.39078e-311
-4.00908e-311
-7.09108e-311
-6.25645e-311
-4.29973e-311
3.88927e-311
-1.80674e-311
4.45607e-312
-7.59589e-311
-1.41383e-310
-1.73724e-310
-1.54969e-310
-6.173e-311
-8.68253e-313
4.25494e-311
8.45272e-311
7.65296e-311
1.28601e-310
1.39136e-310
1.351e-310
1.0642e-310
3.42583e-311
3.65451e-312
-1.71163e-311
-1.36723e-311
-2.14757e-311
-1.22808e-310
-2.06985e-310
-1.96708e-310
-1.80212e-310
-1.54592e-310
-1.13458e-310
-7.88944e-311
-1.36795e-311
6.01628e-312
3.11781e-311
4.20161e-311
3.76537e-312
-6.34026e-311
-6.88088e-311
1.10852e-311
5.67077e-311
1.04005e-310
1.51547e-310
1.97652e-310
2.1474e-310
1.27165e-310
4.6837e-311
-1.05793e-311
1.1672e-310
1.88705e-310
2.32068e-310
2.71171e-310
2.87603e-310
2.5224e-310
1.96822e-310
8.59281e-311
-2.61099e-311
-4.95567e-311
-1.56312e-310
-2.05964e-310
-2.17792e-310
-2.23523e-310
-1.34963e-310
-5.13396e-311
6.62895e-311
1.46367e-310
1.72735e-310
1.79561e-310
1.85277e-310
1.65336e-310
1.66629e-310
2.04391e-310
3.84087e-310
4.22025e-310
2.66072e-310
1.67573e-310
8.30835e-311
9.47625e-311
1.21607e-310
1.71693e-310
1.58607e-310
1.24921e-310
6.49924e-311
3.53304e-311
4.75154e-311
-3.85693e-311
-4.03897e-311
-1.11103e-310
-1.72907e-310
-1.815e-310
-7.02152e-311
5.59136e-311
1.22055e-310
1.05551e-310
6.37129e-311
8.70096e-311
1.34972e-310
1.61593e-310
1.79088e-310
1.85077e-310
7.7819e-311
5.97345e-311
2.86015e-311
5.153e-311
-8.67138e-312
-3.69412e-311
-6.94983e-311
-8.37241e-311
-1.02699e-310
-1.28227e-310
-1.74303e-310
-1.19957e-310
-4.29313e-311
-1.68934e-313
4.89893e-311
3.61496e-311
-1.10311e-311
-6.7474e-311
-6.95707e-311
-1.86459e-311
-3.02028e-312
5.68358e-311
1.20976e-310
1.17432e-310
1.23877e-310
4.83727e-311
-6.53245e-311
-1.08195e-310
1.36859e-311
1.12909e-310
2.07877e-310
2.08177e-310
2.16715e-310
2.10629e-310
1.60064e-310
1.23212e-310
7.60083e-312
4.54107e-312
-6.59345e-311
-1.19065e-310
-1.55794e-310
-1.9594e-310
-1.55219e-310
-1.13526e-310
-3.46617e-311
7.55838e-311
1.20289e-310
9.24607e-311
5.74471e-311
3.42802e-311
6.88376e-311
1.74481e-310
3.45167e-310
3.83209e-310
2.9801e-310
1.50119e-310
-6.52764e-312
3.43302e-312
1.43625e-310
2.46737e-310
3.01334e-310
2.27543e-310
1.4124e-310
1.60754e-310
8.78696e-311
-1.11424e-310
-8.47965e-311
-6.9433e-311
7.40125e-312
8.19424e-311
1.74857e-310
2.00421e-310
1.60553e-310
7.24692e-311
1.43036e-312
1.5267e-311
5.97219e-311
9.00337e-311
1.74515e-310
1.62654e-310
1.28249e-310
6.21367e-311
4.87069e-311
6.22892e-311
6.49486e-311
4.51833e-311
6.94523e-311
-4.86906e-312
-4.54463e-311
-9.65208e-311
-1.21672e-310
-9.55561e-311
-2.12744e-311
2.47265e-311
4.79302e-311
4.20677e-311
5.25227e-312
-7.16595e-311
-7.92986e-311
-8.03046e-311
-7.56939e-311
5.16759e-312
5.20821e-311
7.8824e-311
6.26664e-311
-3.26474e-312
-1.39131e-310
-1.85008e-310
-9.71039e-311
-1.00235e-311
2.86323e-311
2.65815e-311
2.8753e-311
1.98838e-311
6.97521e-311
9.43512e-311
5.81401e-311
8.97158e-311
2.04107e-311
1.52777e-311
-2.21678e-311
-1.23066e-310
-1.2705e-310
-1.40282e-310
-1.33922e-310
-5.23309e-311
-2.92115e-311
-3.81659e-311
-2.95514e-311
-1.51746e-311
3.20302e-311
1.21064e-310
2.29313e-310
2.96923e-310
2.7711e-310
1.34778e-310
-9.48759e-311
-1.10478e-310
-9.50747e-311
-1.34857e-310
-1.0157e-310
-8.74368e-311
-7.69293e-312
5.14967e-311
1.4511e-310
9.43318e-311
8.41758e-311
1.91349e-310
2.77332e-310
2.94836e-310
3.38681e-310
3.22254e-310
2.02299e-310
4.24924e-311
-6.62131e-311
-4.98572e-311
-5.79077e-312
7.77853e-311
1.32208e-310
1.75629e-310
1.62167e-310
7.47658e-311
7.74092e-311
9.41795e-311
1.06605e-310
8.23823e-311
2.86199e-311
-2.51429e-311
-5.46732e-311
-6.06035e-311
-6.07727e-311
-1.95105e-311
2.15009e-312
6.80048e-312
1.03367e-310
6.82327e-311
3.12025e-311
-3.72717e-311
-7.75403e-311
-1.01821e-310
-1.19702e-310
-6.52258e-311
4.41262e-311
3.91772e-311
2.17828e-311
-4.66477e-311
-1.99387e-310
-2.55622e-310
-1.57605e-310
-1.13572e-310
-5.90936e-311
-2.61959e-311
-4.67586e-311
-6.57836e-311
2.14259e-311
9.35495e-311
3.93976e-311
4.14013e-311
-3.43344e-312
-2.81136e-311
-7.21182e-311
-1.08205e-310
-1.27891e-310
-1.2764e-310
-1.2696e-310
-9.987e-311
-6.16071e-311
-4.66363e-311
-2.89234e-311
2.08716e-311
1.21233e-311
-2.77697e-311
2.58289e-311
1.62004e-310
2.12145e-310
1.2553e-310
4.71014e-311
4.88738e-311
-2.33143e-311
-3.34762e-311
1.05888e-311
5.75043e-311
4.80066e-311
1.48341e-310
1.01979e-310
-2.52623e-310
-1.5721e-310
7.06289e-311
1.38986e-310
3.05929e-310
3.41473e-310
3.18937e-310
1.92273e-310
4.43401e-311
-2.39956e-311
-2.56744e-312
8.32373e-312
6.22795e-311
1.49418e-310
2.02519e-310
2.21378e-310
1.22787e-310
1.05488e-310
1.38629e-310
1.40175e-310
7.06563e-311
3.47945e-311
-1.58696e-311
-8.2155e-311
-6.81859e-311
-1.20284e-310
-6.48255e-311
-1.96492e-311
1.98077e-311
1.01546e-310
9.36126e-311
6.96625e-311
-3.54775e-311
-7.25952e-311
-7.6212e-311
-9.92819e-311
-7.98211e-311
-3.52823e-311
2.95225e-311
2.31054e-311
-5.93263e-311
-1.69238e-310
-2.36778e-310
-1.59867e-310
-8.49925e-311
-5.59601e-311
5.36874e-312
6.20345e-312
-3.00384e-311
9.0169e-311
1.45315e-310
8.44068e-311
4.82212e-311
-3.73947e-311
-1.01598e-310
-1.65439e-310
-1.52504e-310
-1.12911e-310
-1.03519e-310
-1.23873e-310
-1.47473e-310
-9.80398e-311
-1.03281e-310
-9.6003e-311
-8.60178e-311
-1.22262e-310
-1.71207e-310
-1.42452e-310
-7.44317e-311
-3.6848e-312
-2.07977e-312
7.24765e-311
5.55166e-311
-2.36241e-311
-2.52415e-311
3.50185e-311
7.98054e-311
6.16456e-311
7.17592e-311
5.25097e-311
-1.31395e-310
-1.61772e-310
-2.37595e-311
8.32455e-311
1.69361e-310
2.51197e-310
3.2329e-310
2.40315e-310
8.988e-311
1.89573e-311
-4.17406e-311
-1.87035e-311
1.09797e-311
4.98419e-311
1.32386e-310
1.52564e-310
1.42665e-310
1.21477e-310
1.61078e-310
1.46918e-310
8.19639e-311
8.02061e-311
7.95119e-312
-3.3271e-311
-7.6324e-311
-1.13429e-310
-5.52434e-311
-3.1766e-311
2.15946e-311
5.64345e-311
7.5416e-311
5.15049e-311
-2.38664e-311
-8.4271e-311
-1.17657e-310
-9.15156e-311
-8.93467e-311
-4.32792e-311
1.97533e-311
4.31803e-312
-6.74597e-311
-1.41456e-310
-2.07494e-310
-1.68788e-310
-8.19196e-311
-4.75703e-311
3.05402e-311
2.72332e-311
-1.97197e-311
9.42144e-311
1.57981e-310
1.1077e-310
1.28729e-310
8.36442e-311
-6.16686e-311
-1.46347e-310
-1.50815e-310
-9.08491e-311
-1.26687e-310
-1.45043e-310
-1.69449e-310
-1.69348e-310
-1.66537e-310
-1.55267e-310
-1.24298e-310
-1.68387e-310
-2.5411e-310
-2.44634e-310
-2.26956e-310
-1.53669e-310
-1.26811e-310
-9.58051e-311
-1.16407e-310
-1.86295e-310
-1.11233e-310
-2.22273e-311
-3.16689e-311
2.05292e-311
-2.17772e-311
-3.37238e-311
-2.35351e-310
-1.9884e-310
-1.47904e-310
-8.91548e-311
-5.41559e-311
1.31246e-310
2.03073e-310
1.35917e-310
4.2732e-311
-6.46653e-311
-1.26394e-310
-1.52302e-310
-1.17007e-310
-7.16594e-311
5.84546e-311
1.45452e-310
1.04902e-310
9.65102e-311
1.6739e-310
1.67425e-310
2.07953e-310
1.84287e-310
1.31032e-310
7.59829e-311
2.65668e-312
-6.13645e-311
-7.20132e-311
-5.07926e-311
-2.21967e-311
8.68398e-311
1.236e-310
6.28135e-311
-5.36251e-311
-1.08977e-310
-1.08682e-310
-6.05327e-311
-8.05235e-311
-4.778e-311
3.36542e-313
-1.15797e-311
-7.03172e-311
-1.18762e-310
-1.61682e-310
-1.37167e-310
-5.32686e-311
-8.37786e-313
6.49788e-311
5.65286e-312
-6.08554e-311
4.03341e-312
9.754e-311
1.71901e-310
2.60206e-310
2.30298e-310
7.31701e-311
3.16467e-312
-2.93419e-311
-1.17959e-310
-1.60188e-310
-1.78545e-310
-1.97474e-310
-2.2906e-310
-2.36844e-310
-1.86e-310
-1.494e-310
-1.64305e-310
-1.92025e-310
-1.25577e-310
-1.26538e-310
-1.15731e-310
-8.21713e-311
-1.52168e-310
-1.50448e-310
-2.14713e-310
-2.40182e-310
-1.4629e-310
-7.7233e-311
-3.5038e-311
-1.17873e-310
-2.35891e-311
-3.29607e-310
-1.94169e-310
-1.62902e-310
-1.3666e-310
-8.12774e-311
2.47241e-312
2.16269e-311
7.65827e-312
5.15934e-312
-1.19725e-310
-1.68718e-310
-1.84493e-310
-1.42938e-310
-7.35124e-311
-5.12089e-312
5.78586e-311
1.81291e-311
7.21801e-311
1.71454e-310
2.3799e-310
3.07034e-310
2.68888e-310
2.02137e-310
1.70131e-310
5.70745e-311
-8.35969e-311
-1.27511e-310
-8.84714e-311
2.19858e-312
1.28885e-310
1.65382e-310
1.16371e-310
1.13783e-311
-7.64516e-311
-9.26456e-311
-4.68953e-311
-3.88468e-311
-4.66623e-311
-6.97091e-312
-4.6493e-311
-6.26863e-311
-9.14146e-311
-1.28687e-310
-6.52804e-311
6.10116e-311
1.13967e-310
1.26014e-310
6.8382e-311
-3.05787e-313
6.35533e-311
1.62687e-310
1.92825e-310
2.57998e-310
2.47425e-310
1.68879e-310
8.9336e-311
-4.43007e-312
-9.07238e-311
-1.80749e-310
-1.86397e-310
-1.60691e-310
-2.21613e-310
-1.99052e-310
-1.25911e-310
-1.40496e-310
-9.62328e-311
-1.25987e-310
-7.5586e-311
-1.10116e-310
-1.04496e-310
-1.05698e-310
-1.20457e-310
-1.61985e-310
-1.14145e-310
-5.49552e-311
-3.17613e-311
-4.51038e-311
-7.91602e-311
-1.43881e-310
-1.4434e-310
8.75151e-311
7.0209e-312
7.62468e-311
-7.73434e-312
4.32291e-311
7.42603e-311
1.16531e-310
1.14837e-310
6.75408e-311
-1.65273e-311
-1.29422e-310
-1.62678e-310
-1.32306e-310
-1.42436e-310
-1.01287e-310
-6.80605e-311
-2.22882e-311
-1.10036e-311
5.99561e-311
1.63105e-310
2.63066e-310
2.44902e-310
2.01178e-310
2.01599e-310
1.24042e-310
-5.2468e-311
-1.12595e-310
-1.01446e-310
1.22843e-311
1.56376e-310
2.24821e-310
2.06942e-310
1.17391e-310
4.13205e-312
-2.94796e-311
-4.82597e-311
-4.68895e-311
-4.73863e-311
-1.87855e-311
-6.98432e-311
-1.18129e-310
-8.60243e-311
-1.42141e-310
-7.23067e-311
9.10884e-312
6.59877e-311
1.12885e-310
1.08254e-310
9.76193e-311
1.88126e-310
2.58175e-310
2.93352e-310
3.46908e-310
2.98563e-310
2.21672e-310
1.23321e-310
3.35039e-311
-1.00561e-310
-1.67823e-310
-1.53647e-310
-9.66774e-311
-1.71001e-310
-1.76774e-310
-1.9345e-310
-1.96263e-310
-1.81355e-310
-1.77341e-310
-9.58969e-311
-5.04263e-311
-4.37787e-311
-1.0148e-310
-1.68915e-310
-1.49873e-310
-1.46404e-310
-6.75537e-311
-7.01455e-311
-5.96329e-311
-1.23228e-310
-1.26617e-310
-1.60354e-310
4.53573e-310
3.49279e-310
2.99916e-310
2.80886e-310
2.91613e-310
2.98777e-310
3.30741e-310
3.11019e-310
2.32912e-310
8.99705e-311
-1.50295e-311
-1.16391e-310
-1.71368e-310
-1.70604e-310
-1.62389e-310
-1.8063e-310
-1.67397e-310
-1.89016e-310
-1.13201e-310
3.24028e-311
1.52102e-310
1.62081e-310
2.1664e-310
2.82137e-310
1.94353e-310
4.24585e-312
-1.07576e-310
-1.18763e-310
-1.8685e-311
1.24638e-310
2.64036e-310
3.18243e-310
2.53951e-310
9.69368e-311
-1.42614e-311
-3.50106e-311
-7.61395e-311
-3.73352e-311
9.94879e-312
-3.42555e-311
-4.59605e-311
-8.11327e-311
-1.71608e-310
-2.07576e-310
-1.42601e-310
-1.15036e-310
-7.8693e-311
-6.51889e-311
-2.14206e-311
9.19188e-311
2.67926e-310
3.56989e-310
4.42675e-310
4.01336e-310
3.27671e-310
2.41121e-310
7.08682e-311
-8.16549e-311
-2.21891e-310
-1.83266e-310
-7.63417e-311
-1.02796e-310
-1.46463e-310
-1.90008e-310
-2.10032e-310
-2.09947e-310
-1.60795e-310
-2.39326e-313
4.00841e-311
-2.2393e-311
-1.4988e-310
-2.5154e-310
-2.92691e-310
-2.44635e-310
-1.54598e-310
-1.50401e-310
-1.00346e-310
-1.31652e-310
-1.24687e-310
-1.20984e-310
1.51886e-310
2.25654e-310
2.60381e-310
3.58829e-310
4.14423e-310
4.28012e-310
3.72763e-310
3.544e-310
2.38915e-310
1.2848e-310
1.42305e-313
-1.41534e-310
-1.73098e-310
-2.61658e-310
-3.25363e-310
-3.33298e-310
-3.36481e-310
-3.11887e-310
-2.77893e-310
-9.45596e-311
4.17679e-311
8.93816e-311
1.86336e-310
2.37547e-310
1.68475e-310
1.69631e-311
-6.50978e-311
-1.29763e-310
-3.86604e-311
7.24069e-311
2.38245e-310
3.40828e-310
2.90254e-310
1.72263e-310
9.58869e-312
-3.18671e-311
-6.58473e-311
2.78376e-311
8.29812e-311
8.11805e-311
6.53228e-311
1.14225e-311
-1.07847e-310
-1.87667e-310
-2.29694e-310
-2.75469e-310
-2.65397e-310
-3.0346e-310
-3.11519e-310
-1.88229e-310
-2.25867e-311
1.03274e-310
2.6161e-310
3.67482e-310
3.78748e-310
3.6268e-310
1.98473e-310
4.90778e-311
-1.65859e-310
-1.73089e-310
-1.2453e-310
-5.68164e-311
-9.61903e-311
-1.09815e-310
-1.46343e-310
-1.43611e-310
-5.71753e-311
4.09824e-311
5.10631e-311
-2.2921e-311
-7.3769e-311
-1.82013e-310
-1.9148e-310
-3.10812e-311
7.67037e-311
1.46385e-310
1.31867e-310
1.16597e-310
6.60179e-311
5.76035e-311
-1.14205e-310
-2.63637e-311
1.42672e-310
3.18843e-310
4.09758e-310
3.85695e-310
3.69919e-310
3.23574e-310
1.68616e-310
6.34005e-311
5.0857e-312
-1.06894e-310
-1.68011e-310
-2.53262e-310
-3.51482e-310
-3.957e-310
-3.47445e-310
-3.5074e-310
-3.55549e-310
-2.25004e-310
-1.19757e-310
1.03257e-311
1.13249e-310
1.67118e-310
1.30893e-310
6.6469e-311
9.84935e-313
-5.01438e-311
-3.26289e-311
4.53428e-311
1.64987e-310
2.85223e-310
2.91573e-310
2.23183e-310
9.86592e-311
2.70819e-311
3.70382e-311
7.35706e-311
1.28123e-310
1.33378e-310
1.19753e-310
8.22995e-311
3.82622e-312
-1.2958e-310
-1.89544e-310
-2.9798e-310
-2.53064e-310
-3.27309e-310
-3.77992e-310
-3.84877e-310
-3.29301e-310
-2.56409e-310
-2.00789e-311
1.30814e-310
2.515e-310
3.71782e-310
3.19617e-310
1.89911e-310
-6.20367e-311
-1.68847e-310
-1.16591e-310
-6.92072e-311
-6.72768e-311
-3.66752e-311
-9.59182e-311
-2.63728e-311
-2.47507e-311
-8.45581e-312
-8.77231e-312
-2.49661e-311
-5.25693e-311
-1.28672e-310
-1.73561e-310
-3.50961e-311
4.85705e-311
1.06932e-310
2.20309e-310
3.14018e-310
2.49637e-310
1.48611e-310
-5.25358e-311
-3.907e-311
-1.61836e-311
1.20274e-310
2.12202e-310
2.6965e-310
3.27431e-310
2.44106e-310
1.41285e-310
7.12636e-311
9.54533e-311
1.61775e-311
-3.66968e-311
-1.24898e-310
-2.28096e-310
-2.45432e-310
-2.85266e-310
-3.13717e-310
-3.50406e-310
-2.72357e-310
-1.79619e-310
-1.3129e-310
-5.03428e-312
5.40663e-311
7.00502e-311
7.89929e-311
4.01175e-311
2.53075e-311
-8.57825e-312
2.65363e-311
1.30043e-310
2.6307e-310
3.31356e-310
2.64893e-310
1.78595e-310
1.0806e-310
6.07898e-311
6.97231e-311
1.25335e-310
6.87442e-311
7.67944e-311
5.72704e-311
-4.82255e-312
-1.14867e-310
-2.08056e-310
-2.70174e-310
-1.71679e-310
-2.04699e-310
-2.11689e-310
-2.31444e-310
-2.84725e-310
-2.2231e-310
-4.61894e-311
6.11712e-311
1.69128e-310
2.68769e-310
2.89076e-310
2.81509e-310
1.13564e-310
7.18391e-312
6.69075e-311
1.07219e-310
1.41983e-310
9.86466e-311
5.29164e-311
1.53132e-311
-3.08518e-312
-8.18011e-311
-1.03509e-310
-1.51246e-311
2.48833e-312
-1.12534e-310
-1.36077e-310
-1.28074e-310
-1.8129e-310
-9.96575e-311
7.53681e-311
1.62592e-310
1.67764e-310
6.29886e-311
3.41908e-311
3.36601e-311
1.17489e-311
-3.14776e-311
6.98388e-311
1.30999e-310
1.76031e-310
1.3045e-310
1.79515e-311
4.33962e-311
3.76038e-311
3.03922e-311
8.11402e-312
-7.54103e-312
-1.07379e-310
-1.75617e-310
-2.59215e-310
-3.21271e-310
-3.36355e-310
-3.48923e-310
-3.91516e-310
-2.76059e-310
-1.45014e-310
-4.7314e-311
-3.61627e-311
-1.7408e-312
-2.61171e-311
-3.17228e-312
3.05993e-311
7.13338e-311
8.77176e-311
2.34469e-310
3.04977e-310
3.18156e-310
2.38617e-310
1.46261e-310
7.75646e-311
1.18086e-310
1.17015e-310
7.20728e-311
1.06501e-310
8.34976e-311
2.55757e-312
-1.57463e-310
-2.96201e-310
-3.46852e-310
-2.5139e-310
-1.84293e-310
-8.2574e-311
-5.85803e-311
-3.90155e-311
-1.04205e-311
1.3742e-310
1.98782e-310
2.21368e-310
2.36617e-310
2.5446e-310
2.5773e-310
1.7129e-310
9.19326e-311
1.7001e-310
2.23084e-310
2.80293e-310
2.17405e-310
1.41111e-310
1.19731e-310
-5.32231e-312
-1.01336e-310
-7.2912e-311
4.20055e-311
1.17694e-310
4.48169e-311
1.08117e-311
-3.84756e-311
-1.72512e-310
-2.14713e-310
-1.88897e-310
-1.79248e-310
-2.58567e-310
-2.74138e-310
-2.55464e-312
-5.64858e-311
-1.36677e-310
-1.4113e-310
-1.61133e-310
-9.98465e-311
-7.63766e-311
-6.98952e-311
-1.24239e-310
-7.11775e-311
-7.71208e-311
-2.65488e-311
-1.38146e-311
3.72506e-311
-7.51505e-311
-2.19063e-310
-3.10762e-310
-3.2259e-310
-3.67863e-310
-4.49957e-310
-4.91792e-310
-4.06588e-310
-3.22609e-310
-1.86423e-310
-1.59317e-310
-1.31569e-310
-1.44873e-310
-5.37806e-311
1.53571e-311
2.84076e-311
1.83059e-311
1.62101e-310
2.56701e-310
3.18578e-310
2.3741e-310
1.54733e-310
1.32405e-310
1.64355e-310
1.5534e-310
1.6476e-310
2.16889e-310
1.72991e-310
7.76626e-311
-1.18074e-310
-2.70293e-310
-3.92471e-310
-3.39662e-310
-2.66844e-310
-1.77525e-310
-1.33344e-310
-1.13366e-310
-8.66351e-311
6.77298e-311
6.52507e-311
6.11812e-311
5.7393e-311
2.7549e-311
-9.77549e-312
-7.464e-311
-1.2093e-310
-7.71281e-311
8.48397e-312
1.45925e-310
1.55744e-310
1.17413e-310
6.84749e-311
-5.33093e-312
-9.88693e-311
-1.00692e-310
3.00139e-311
7.83712e-311
9.35489e-311
1.15404e-310
9.43611e-311
8.69161e-311
9.84814e-311
2.73426e-311
-1.45717e-310
-2.73423e-310
-3.66121e-310
1.25303e-310
7.34053e-311
3.19131e-311
-1.21946e-310
-1.66097e-310
-1.65513e-310
-1.92685e-310
-1.29294e-310
-1.41462e-310
-1.24456e-310
-7.45156e-311
-1.01689e-310
-5.2059e-313
-3.90024e-311
-9.56973e-311
-1.8405e-310
-2.64411e-310
-2.67199e-310
-3.1946e-310
-4.40798e-310
-5.35149e-310
-5.25946e-310
-4.08975e-310
-2.93824e-310
-2.18123e-310
-2.18554e-310
-2.24209e-310
-1.28711e-310
-5.63273e-311
-4.13323e-311
-1.94676e-311
1.05341e-310
2.08666e-310
2.73913e-310
2.37715e-310
1.74225e-310
1.72643e-310
1.47237e-310
1.42205e-310
1.82311e-310
2.498e-310
2.86087e-310
1.87438e-310
3.4921e-311
-1.03694e-310
-2.24106e-310
-2.72847e-310
-2.71087e-310
-3.38165e-310
-3.81211e-310
-5.02006e-310
-5.07679e-310
-4.53009e-310
-3.74577e-310
-2.51185e-310
-1.8618e-310
-1.03734e-310
-3.88801e-311
-7.19063e-311
-1.35446e-310
-1.38766e-310
-1.20962e-310
-5.51439e-311
-2.57006e-312
-1.063e-310
-1.41293e-310
-1.73618e-310
-1.72301e-310
-2.3417e-310
-1.05966e-310
-9.21332e-311
-8.09536e-311
-6.37397e-311
-2.91602e-311
-1.94765e-311
-1.50838e-311
-1.21224e-310
-2.16246e-310
-3.30107e-310
-3.9996e-310
2.69899e-310
2.76264e-310
2.33903e-310
2.29611e-310
1.57169e-310
2.34379e-311
-8.45483e-311
-1.07682e-310
-1.47351e-310
-1.13802e-310
-1.3728e-310
-1.11625e-310
-4.37694e-311
4.30871e-311
-2.95291e-312
-6.46016e-311
-1.62299e-310
-1.45209e-310
-2.17925e-310
-3.57417e-310
-4.73774e-310
-5.16304e-310
-4.13018e-310
-2.96794e-310
-1.98146e-310
-2.50812e-310
-2.9817e-310
-2.17918e-310