/*--------------------------------*- C++ -*----------------------------------*\
  =========                 |
  \\      /  F ield         | OpenFOAM: The Open Source CFD Toolbox
   \\    /   O peration     | Website:  https://openfoam.org
    \\  /    A nd           | Version:  11
     \\/     M anipulation  |
\*---------------------------------------------------------------------------*/
FoamFile
{
    format      ascii;
    class       volScalarField;
    location    "100";
    object      C;
}
// * * * * * * * * * * * * * * * * * * * * * * * * * * * * * * * * * * * * * //

dimensions      [0 0 0 1 0 0 0];

internalField   nonuniform List<scalar> 
427520
(
5.55188e-313
-2.46264e-312
-1.50618e-311
2.05114e-311
1.07417e-311
1.79094e-311
-1.06851e-311
1.99426e-312
2.28932e-311
2.38458e-312
-7.61654e-312
-1.10598e-311
-2.87568e-312
-1.27165e-312
1.1448e-312
2.70173e-311
-1.14557e-311
-4.27817e-312
3.07427e-312
-2.23807e-312
1.36961e-311
-1.45624e-311
-2.57452e-312
-1.71673e-313
4.82546e-312
-3.52905e-312
-2.69292e-311
-1.21322e-311
-2.47241e-311
-5.08739e-312
-2.34422e-311
-1.93924e-312
-5.48477e-313
-1.26109e-311
-1.41147e-311
-1.54528e-311
-6.43925e-312
1.16835e-311
6.47317e-313
-1.3766e-311
1.67761e-312
5.64329e-312
2.67941e-311
1.3305e-311
-1.82772e-312
-6.57066e-312
5.77229e-312
3.66694e-312
2.39617e-311
1.29258e-311
5.03886e-312
1.43025e-311
2.22688e-311
-1.73639e-311
-1.21587e-311
-5.05784e-312
-2.21274e-312
-5.34805e-313
4.05185e-312
2.3908e-312
2.62549e-311
4.28193e-312
6.65593e-312
4.63027e-312
3.19323e-312
1.48625e-311
3.09817e-313
2.28378e-312
-1.85794e-313
9.55089e-313
4.64362e-312
6.117e-313
3.58878e-312
5.68016e-312
7.99704e-312
2.16514e-311
3.92881e-312
1.05321e-312
-4.1895e-312
1.7763e-312
-1.44685e-311
-1.08082e-311
-3.43113e-311
-4.702e-313
-6.16497e-312
1.20936e-311
1.59387e-311
3.05521e-311
2.24217e-311
-6.58494e-312
-1.75222e-311
-3.35577e-311
-2.31798e-311
-1.49036e-311
-9.19704e-312
-1.08259e-311
8.51631e-313
-7.00565e-312
1.05456e-311
4.0651e-311
4.47679e-311
1.70634e-311
-3.79276e-312
2.75895e-311
2.06853e-311
1.18306e-311
2.72568e-312
-2.16639e-311
-2.12139e-311
-3.992e-311
-2.35909e-312
1.32922e-312
6.25972e-312
2.67047e-311
7.92354e-312
1.98369e-311
2.1512e-311
1.23043e-311
1.39986e-311
-5.02063e-311
-2.19095e-311
-1.61247e-311
2.26591e-311
-7.4542e-312
8.38622e-313
-7.71512e-312
2.17537e-311
9.0268e-312
-1.93663e-312
1.3193e-311
4.88173e-312
3.11493e-311
1.6094e-311
-2.28817e-311
-1.43765e-311
4.9029e-312
2.01151e-311
-1.32009e-311
-1.77409e-312
-2.38346e-312
4.56716e-311
-9.96689e-313
-4.0281e-312
-9.84053e-312
-2.74732e-311
-1.40811e-311
1.54605e-311
4.04922e-314
-9.53031e-312
-4.18927e-311
-2.07327e-311
-2.75792e-311
-1.95443e-311
2.70301e-312
2.7107e-311
1.27612e-311
7.86967e-312
1.50607e-311
1.72595e-312
-1.62246e-311
1.0428e-311
7.32869e-312
2.57716e-312
1.17051e-311
-3.09637e-311
7.75427e-312
3.00244e-313
1.47502e-312
-5.01322e-312
-1.53629e-311
-3.42064e-311
-4.18401e-311
-1.33622e-311
-1.79097e-311
-1.46372e-311
-2.27224e-312
-2.37307e-311
-2.779e-311
2.75657e-311
5.09098e-311
4.38083e-311
4.21627e-311
5.67467e-311
4.75201e-311
3.86635e-311
2.67968e-311
-1.13073e-311
-3.754e-312
-3.34381e-311
-3.86172e-311
-1.95554e-311
-1.766e-311
2.0737e-311
6.23201e-311
1.59936e-311
-1.98445e-311
6.84558e-312
-1.56339e-311
-1.58463e-311
-5.09762e-311
-3.98212e-311
-2.74522e-311
2.27599e-311
1.21539e-311
-8.12684e-314
-1.26081e-311
2.81418e-311
4.81296e-311
7.13654e-311
3.41132e-311
2.80905e-311
2.15555e-311
7.81413e-312
-6.84824e-313
-3.01769e-311
1.944e-311
3.44833e-311
2.38037e-311
7.53201e-312
1.93411e-311
2.08924e-311
-1.07227e-311
-3.865e-311
-3.43877e-311
-4.10911e-311
-6.41758e-312
-8.02272e-312
-3.57279e-311
-2.73379e-311
-4.53309e-311
-2.65023e-311
-8.91918e-312
-2.35705e-312
-3.23153e-312
3.25893e-311
2.4058e-311
1.88293e-311
1.15673e-311
-1.07447e-311
-1.21874e-311
6.33343e-311
1.50736e-311
1.96543e-311
-1.06816e-311
-1.57151e-311
1.97941e-311
5.34785e-312
-4.13188e-312
1.2692e-311
6.51833e-312
-7.19015e-312
-2.58936e-311
-2.54145e-311
8.17923e-312
2.77009e-312
7.52619e-312
-2.58617e-312
-2.15287e-312
2.46166e-311
3.50022e-311
3.71027e-311
5.96916e-311
6.60287e-311
3.53561e-311
4.96268e-311
1.29108e-311
-1.91662e-311
3.86359e-312
-1.61575e-311
-2.72472e-312
7.12336e-312
-4.18874e-312
1.22672e-311
4.12466e-311
1.25862e-311
-2.56347e-311
-3.15142e-311
-4.58922e-311
-2.24704e-311
-3.30952e-311
-2.59562e-311
-1.53309e-311
-9.67299e-312
-8.6084e-312
-4.0865e-314
1.84365e-311
3.76318e-311
4.19304e-311
7.04375e-311
5.66936e-311
1.86197e-311
3.36135e-311
9.30728e-312
-8.8725e-312
-2.52523e-311
-3.79507e-312
1.5324e-312
4.4266e-311
3.56179e-311
3.53128e-311
5.64551e-312
-1.95192e-311
-4.05777e-311
-3.35677e-311
-3.10261e-311
-1.2158e-311
-2.18561e-311
-4.51716e-311
-3.08696e-311
-3.44631e-311
-1.88118e-311
8.79129e-312
6.22842e-312
-2.48778e-311
-1.44487e-312
4.40483e-312
-4.31227e-312
-9.26474e-312
9.03233e-312
2.50167e-311
3.08168e-311
-3.08728e-312
-4.06348e-311
6.42492e-312
7.39084e-312
2.31357e-311
1.99054e-311
-3.64527e-311
-1.08668e-311
5.41124e-312
1.30861e-311
-1.40477e-311
-8.40517e-312
-3.07419e-312
-3.13525e-312
-1.87502e-311
-2.40076e-313
-2.12531e-312
-8.51474e-312
1.19628e-311
2.4519e-311
4.50845e-311
5.19468e-311
5.48809e-311
2.50073e-311
-1.24002e-311
-2.76899e-311
1.70515e-312
-1.43691e-311
-9.62415e-312
-2.64242e-311
-1.21834e-311
-2.09948e-311
1.44825e-311
3.15215e-311
-4.21174e-313
-3.75199e-311
-5.54213e-311
-4.83699e-311
-8.96821e-311
-8.81794e-311
-4.77813e-311
-3.22839e-311
-5.94782e-311
4.71866e-312
2.39775e-311
3.26376e-311
3.08354e-311
3.9482e-311
4.53158e-311
3.83389e-311
1.13144e-311
-5.05098e-312
-1.02125e-311
-1.13051e-311
2.42509e-311
2.22036e-312
1.89301e-311
2.14445e-311
1.16708e-311
5.00651e-312
-5.49985e-312
-7.1077e-312
-3.80354e-311
-1.66166e-311
-2.67459e-311
-4.34307e-311
-5.45886e-311
-5.60487e-311
-3.26348e-311
-3.1465e-311
-1.25702e-311
1.78381e-311
-1.40012e-311
2.81545e-311
2.73426e-311
2.39629e-311
4.11854e-311
6.09157e-311
8.10688e-311
-5.69167e-311
-1.38254e-311
-3.5767e-311
-7.93768e-313
-1.77578e-311
-8.33451e-312
-3.31457e-311
-4.97141e-311
-1.59832e-311
5.51333e-312
1.1826e-312
-2.71432e-311
1.05532e-311
1.62852e-311
2.13423e-311
-9.73426e-312
8.82992e-312
2.91001e-311
1.4939e-311
2.13037e-311
3.50041e-311
3.90386e-311
1.55767e-311
4.53101e-311
2.70196e-311
1.3182e-312
-2.2491e-311
-1.29131e-311
-2.49413e-311
-2.31337e-311
-3.83406e-311
-2.27207e-311
-7.53731e-312
-3.27317e-312
4.26466e-311
-9.26917e-312
-2.84804e-311
-3.67751e-311
-6.01095e-311
-1.18513e-310
-1.01059e-310
-5.369e-311
-4.63876e-311
-4.46153e-311
6.57574e-312
3.52492e-311
6.96519e-311
3.76958e-311
1.92844e-311
3.15373e-311
2.85177e-311
2.02885e-311
5.3767e-312
2.4078e-312
-2.38366e-311
1.25675e-312
-2.12902e-311
-6.87857e-313
1.02175e-311
2.69317e-311
6.97698e-312
-1.32813e-311
-1.7136e-311
-4.81986e-311
-3.83171e-311
-7.01712e-311
-8.77384e-311
-6.74321e-311
-5.89632e-311
-3.70581e-311
-2.75761e-311
-4.10661e-311
-1.27771e-311
-1.55584e-311
5.61263e-311
4.45806e-311
1.84358e-311
4.90385e-311
1.09924e-310
1.09474e-310
-6.65724e-311
-1.67827e-311
-5.25002e-311
-6.32981e-311
-4.85929e-311
-1.97791e-311
-3.27202e-311
-2.25122e-311
-1.46031e-311
-2.73572e-311
-3.76155e-311
-2.64393e-311
-1.79419e-311
8.41273e-312
1.28913e-311
-1.60559e-311
4.24082e-312
1.80377e-311
3.35134e-311
4.37553e-311
5.09e-311
5.95687e-311
1.90521e-311
3.06697e-311
2.86714e-311
1.95254e-311
-3.27449e-312
-2.30964e-311
-5.78839e-311
-3.11291e-311
-2.95956e-311
-7.37559e-312
1.31418e-311
9.63895e-312
2.85205e-311
-2.27414e-311
-1.87534e-311
-2.08222e-311
-7.23643e-311
-1.07493e-310
-1.05447e-310
-4.08274e-311
-3.86695e-311
-9.58336e-312
2.33148e-311
3.10755e-311
3.77935e-311
3.75031e-311
1.85274e-311
-3.27854e-312
1.32197e-311
4.84541e-311
2.25123e-311
1.7486e-311
-5.76212e-313
3.12587e-311
3.1382e-311
7.68678e-312
-1.2239e-311
-4.51503e-312
8.81615e-313
-5.50614e-312
-2.87351e-311
-3.38326e-311
-5.2966e-311
-8.9134e-311
-5.731e-311
-2.3447e-311
-1.65125e-311
-2.62284e-311
-1.24561e-311
-1.85096e-311
-1.44347e-311
1.84472e-311
2.90368e-311
3.98454e-312
-2.10166e-311
8.83514e-312
9.77318e-311
5.16134e-311
3.95051e-311
2.18455e-311
-3.3072e-311
-9.538e-311
-6.74394e-311
-4.78585e-312
-1.76245e-312
1.62208e-311
-2.34266e-311
-5.88845e-311
-4.44695e-311
-4.80769e-311
-1.52642e-311
-1.94978e-312
-3.23701e-311
-4.34094e-311
-2.88478e-311
-4.00985e-311
-2.72023e-311
5.49586e-312
1.75454e-312
1.32978e-311
1.73404e-311
2.47965e-311
1.70739e-311
2.6e-311
1.38065e-311
-3.64492e-311
-5.42734e-311
-1.06824e-311
1.62578e-313
-2.4209e-312
5.49445e-312
6.22319e-312
-6.88907e-312
-3.82012e-311
-2.50258e-311
-5.04073e-311
-6.07949e-311
-8.66367e-311
-7.67743e-311
-7.57057e-311
-5.31719e-311
-1.64052e-311
3.9199e-311
4.18316e-311
2.83872e-311
4.23804e-311
2.93057e-311
4.80007e-312
-8.04159e-312
3.17207e-311
1.78245e-311
1.04879e-311
1.72979e-311
1.9771e-311
4.55119e-311
-5.85054e-312
-4.28173e-311
-2.94113e-311
-2.22677e-311
-2.80001e-311
-5.87579e-311
-4.37318e-311
-4.99198e-311
-7.30522e-311
-1.73014e-311
9.26743e-312
-1.61299e-311
-3.53664e-311
-2.07312e-311
-2.01515e-311
-1.63178e-311
4.19914e-312
-3.77604e-312
-2.0956e-311
-6.11638e-311
-3.95645e-311
4.73421e-311
9.60688e-311
1.25803e-310
3.67491e-311
-4.63939e-311
-6.13193e-311
-6.49454e-311
7.80387e-312
2.35061e-311
4.71262e-311
-1.69357e-311
-2.76034e-311
-3.73419e-311
-3.9679e-311
-2.43801e-311
-6.51397e-312
-2.46554e-311
-4.68969e-311
-5.74779e-311
-5.27437e-311
-4.03023e-311
-2.31146e-311
4.32501e-312
4.45399e-312
1.72123e-311
1.55257e-311
1.20029e-311
6.35984e-312
4.9529e-312
-3.69146e-311
-3.57357e-311
-1.139e-311
1.55684e-311
3.84295e-311
3.17465e-311
1.98579e-312
6.22809e-312
-3.81464e-311
-2.96384e-311
-3.96307e-311
-8.03639e-311
-7.9848e-311
-8.75051e-311
-6.50519e-311
-3.13316e-311
-5.09893e-312
1.85801e-311
3.77083e-311
2.02387e-311
1.2783e-311
9.43694e-312
1.6036e-311
4.903e-313
-1.52489e-311
-1.63474e-311
-2.68259e-312
-1.19579e-311
3.37709e-311
3.90129e-311
-1.05379e-311
-4.33194e-311
-3.1697e-311
-3.52571e-311
-4.40678e-311
-4.92546e-311
-3.81527e-311
-4.04868e-311
-2.75454e-311
-4.73898e-311
-2.03598e-311
-4.07903e-311
-8.88035e-311
-1.3853e-311
1.86144e-311
8.07302e-312
-2.23834e-312
1.50434e-312
-2.1552e-311
-6.15595e-311
-5.73007e-311
-4.55319e-311
-3.73596e-311
7.43911e-311
2.01068e-311
2.3123e-312
-3.45383e-311
-6.535e-311
-3.5753e-311
3.89311e-311
4.94398e-311
2.28203e-311
-6.58347e-312
-3.50199e-311
-4.94492e-311
-2.05575e-312
6.52004e-312
-1.44834e-311
-4.26666e-311
-6.23652e-311
-4.23755e-311
-2.44765e-311
-2.43846e-311
-2.1628e-311
-2.34054e-311
2.14975e-311
1.88707e-311
-5.90213e-312
1.47742e-311
-2.13491e-311
-1.54758e-311
-1.29828e-311
-2.53599e-311
5.79797e-312
3.85754e-311
3.32415e-311
2.12533e-311
2.52181e-312
-5.43111e-312
2.35488e-311
-1.31208e-311
-6.21564e-311
-1.00542e-310
-1.13614e-310
-1.07773e-310
-2.42547e-311
-1.77621e-311
3.61046e-311
3.13853e-311
3.35512e-311
2.88877e-311
8.63163e-312
-1.84183e-311
-1.97346e-311
-1.17851e-311
-3.70275e-313
2.28545e-311
3.83192e-311
7.32894e-311
6.01093e-311
2.11265e-311
-1.6607e-311
4.33693e-313
-4.9446e-312
-2.9898e-311
-3.26899e-311
-8.43671e-312
-6.53273e-312
-2.70263e-311
-5.73379e-311
-6.5242e-311
-4.76955e-311
-9.33852e-311
-3.6288e-311
2.01536e-311
1.02721e-311
5.1679e-312
-2.6427e-311
-8.78294e-311
-9.59512e-311
-1.15411e-310
-1.59198e-310
-1.21903e-310
1.45319e-310
7.54692e-311
4.29353e-312
-5.21016e-311
-6.27813e-311
-3.4699e-311
-1.53398e-311
3.4989e-311
3.18973e-311
-1.29242e-311
-4.85463e-311
-4.15202e-311
-1.56686e-311
8.86161e-312
-1.60009e-311
-1.31193e-311
-1.52403e-311
-7.87606e-312
1.49457e-312
-1.73452e-311
-3.69574e-311
-2.10459e-311
2.21447e-311
1.83483e-313
-1.10399e-311
1.12276e-311
-1.48795e-311
3.64983e-312
-2.48872e-311
-2.67414e-311
-2.52692e-311
1.52445e-311
6.55717e-312
2.62963e-311
3.11201e-312
-5.72583e-312
3.22479e-311
-5.208e-312
-7.62426e-311
-1.39881e-310
-1.24495e-310
-9.14513e-311
-3.82411e-311
-1.81807e-311
1.2162e-311
-1.50908e-311
2.05253e-311
1.60697e-311
7.43367e-312
-2.52908e-312
-3.70673e-311
-4.39873e-313
2.79797e-311
5.60113e-311
5.35277e-311
6.25204e-311
5.95866e-311
4.93991e-311
5.49184e-312
2.1852e-312
2.78406e-312
-4.57996e-312
2.93954e-311
3.28053e-311
4.40821e-311
3.43167e-312
-3.76489e-311
-7.92254e-311
-1.00972e-310
-9.9379e-311
-4.86614e-311
-2.75108e-311
-4.14722e-311
-2.78003e-311
-6.02509e-311
-1.38029e-310
-1.19752e-310
-1.27204e-310
-1.45852e-310
-1.06141e-310
1.5848e-311
-3.43409e-312
-2.41215e-311
-3.65042e-311
-3.63941e-311
-3.21124e-311
-4.47801e-311
-4.10355e-311
-5.38646e-311
-4.30295e-311
-6.13705e-311
-6.32934e-311
-2.25173e-311
-1.22837e-312
-1.32123e-312
-2.98713e-312
4.93332e-312
1.43025e-311
6.16432e-312
-1.64114e-311
-2.81708e-311
-1.8036e-311
2.04575e-312
-2.58061e-312
-2.83167e-311
-2.2879e-311
-1.17191e-311
-3.64244e-312
-2.94301e-311
-2.2819e-311
-1.26553e-311
1.3803e-311
2.2801e-311
-1.72006e-312
-2.80476e-311
1.14718e-311
-6.82973e-312
-3.69541e-311
-7.69021e-311
-1.04716e-310
-1.11117e-310
-1.03635e-310
-3.16621e-311
1.1051e-311
8.29135e-312
1.13898e-311
3.28673e-311
1.42541e-311
-1.60632e-311
-2.69652e-311
-1.91298e-311
-6.71567e-312
2.95273e-311
7.23289e-311
6.16336e-311
4.10573e-311
1.45989e-311
4.40861e-312
-1.07965e-311
-1.4694e-311
-2.17099e-311
-2.66344e-311
3.63344e-311
6.02245e-311
6.58011e-311
2.58381e-311
-4.67855e-311
-8.0357e-311
-6.44783e-311
-1.01795e-310
-5.35891e-311
-2.61547e-311
-2.08411e-311
-1.96747e-311
-6.5409e-311
-1.60159e-310
-1.50311e-310
-1.89997e-310
-1.9471e-310
-1.81419e-310
-1.02679e-310
-5.36578e-311
-4.04888e-311
1.80799e-311
6.13603e-311
3.1889e-311
2.15071e-312
-2.48957e-311
-3.97385e-311
-7.23716e-311
-1.00798e-310
-7.24973e-311
-2.92193e-311
-9.63645e-312
1.80922e-311
1.55597e-311
2.89261e-311
2.56609e-311
2.28654e-311
-1.53224e-311
-4.78612e-311
-3.64e-311
-2.36232e-311
-3.29018e-312
-2.32757e-311
-4.31465e-311
-2.41865e-311
-1.11018e-311
-4.01063e-311
-5.34863e-311
-3.11794e-311
3.91498e-312
5.76727e-312
3.14929e-313
-1.01072e-311
2.91289e-311
-6.27591e-312
-3.56432e-312
-4.19081e-311
-9.01419e-311
-9.45995e-311
-9.88448e-311
-2.35221e-311
1.66578e-311
2.05353e-311
2.59739e-311
1.93074e-311
2.23768e-311
1.06868e-311
-9.01387e-312
-1.07581e-311
2.36546e-311
6.28423e-311
7.87066e-311
2.00822e-311
5.96249e-312
-1.3638e-312
-5.00533e-312
8.33674e-312
-1.73593e-311
-4.59256e-311
-1.22686e-311
3.50463e-311
8.5096e-311
1.20219e-310
9.82303e-311
-4.51428e-312
-4.26513e-311
-7.52756e-311
-6.23899e-311
-3.45679e-311
-4.55436e-311
-2.24377e-311
-1.00039e-311
-3.47125e-311
-1.30874e-310
-1.23705e-310
-1.79218e-310
-2.44211e-310
-2.68228e-310
-1.28879e-311
6.35667e-312
1.51759e-311
2.13744e-311
8.77806e-312
3.28527e-311
3.52687e-312
3.9795e-311
-4.48486e-312
-4.05896e-311
-5.09022e-311
-7.02846e-311
-5.06384e-311
-5.55031e-311
1.28482e-312
2.90713e-311
3.36148e-311
3.00793e-311
5.35409e-311
6.89775e-313
-3.54347e-311
-2.22775e-311
-1.15807e-311
1.85012e-312
-1.87862e-311
-5.24033e-311
-3.61024e-311
-2.46416e-311
-5.02392e-311
-3.61471e-311
-2.73598e-311
-8.05821e-312
-6.48164e-312
-2.06657e-312
-1.40093e-311
3.13708e-311
-1.46076e-312
-4.32345e-312
-4.90244e-311
-9.87506e-311
-1.1279e-310
-1.03259e-310
-2.89674e-311
-7.15104e-312
2.16477e-311
2.1133e-311
4.00632e-311
3.0456e-311
2.90501e-311
1.52882e-311
3.36397e-311
5.77261e-311
7.10632e-311
3.08207e-311
-1.46483e-311
1.2374e-311
9.0584e-312
3.5584e-312
2.39589e-311
-5.75092e-312
-2.68874e-311
-6.34999e-312
3.02096e-311
1.07716e-310
1.54372e-310
1.22527e-310
7.50449e-311
-1.02789e-312
-3.29916e-311
-2.44522e-311
-3.81973e-311
-4.09519e-311
-5.22722e-311
-7.4376e-311
-8.31854e-311
-1.21633e-310
-1.14157e-310
-1.38429e-310
-1.85867e-310
-1.50591e-310
4.23554e-311
4.53872e-311
6.60743e-311
2.27869e-311
-2.26948e-312
2.34757e-312
5.62941e-311
5.26035e-311
2.26974e-311
-3.37481e-311
-2.65803e-311
-4.29949e-311
-9.21709e-311
-9.15715e-311
-5.90369e-311
-9.45322e-312
1.82031e-311
3.75651e-311
3.51266e-311
1.67428e-311
-6.45177e-312
8.84875e-312
1.30416e-311
4.90996e-312
-5.22861e-312
-2.83181e-311
-3.81031e-311
-3.71076e-311
-6.06319e-311
-5.26516e-311
-5.61744e-312
8.89171e-312
-7.59119e-312
-4.45752e-312
-1.82908e-311
3.641e-311
2.11203e-311
4.96292e-312
-4.47973e-311
-5.97698e-311
-7.2876e-311
-8.53771e-311
-5.48359e-312
1.85546e-312
3.88482e-311
1.36911e-311
2.35407e-311
2.9273e-311
1.26017e-311
3.915e-311
7.24554e-311
6.62688e-311
7.90715e-311
1.89414e-311
-4.05177e-311
-1.35247e-311
-1.33724e-311
-1.38044e-311
-2.07523e-311
-1.71543e-311
-1.15326e-311
4.08119e-312
4.03656e-311
1.12265e-310
1.34211e-310
1.08451e-310
1.21265e-310
5.21164e-311
1.25815e-312
1.77698e-312
-5.42524e-311
-7.82715e-311
-9.24479e-311
-8.26503e-311
-6.41935e-311
-9.65869e-311
-1.26264e-310
-1.51882e-310
-1.969e-310
-2.61527e-310
5.68214e-311
1.09947e-310
1.09298e-310
9.16478e-311
2.59316e-311
3.17357e-312
4.5604e-311
3.12645e-311
4.48365e-312
-2.57143e-311
-6.14159e-311
-9.6336e-312
-6.31651e-311
-8.75582e-311
-6.57012e-311
-6.71282e-312
7.51819e-313
1.71844e-311
2.85133e-311
3.17153e-311
-3.53656e-311
-9.07658e-312
-2.15329e-311
-6.66217e-312
3.51127e-312
-2.15244e-311
-2.62726e-312
-2.10444e-311
-5.49936e-311
-5.1101e-311
-1.00935e-311
2.94694e-311
3.15942e-311
3.59921e-311
3.02578e-311
5.76311e-311
1.72193e-311
8.06459e-312
-4.54068e-311
-5.20673e-311
-5.3068e-311
-5.78767e-311
-9.45321e-312
3.44711e-311
4.30383e-311
-3.92999e-312
-7.64159e-312
4.26661e-312
-1.43236e-311
1.62651e-311
7.15723e-311
6.28247e-311
6.93713e-311
6.93394e-312
-1.70392e-311
-3.04089e-312
-5.42332e-311
-9.27535e-311
-5.41703e-311
-3.72744e-311
-1.30218e-311
3.31016e-311
5.37578e-311
9.13366e-311
1.04441e-310
1.19773e-310
1.37936e-310
1.12448e-310
6.89136e-311
2.35608e-311
-2.28026e-311
-2.61568e-311
-2.55223e-311
-7.61399e-311
-8.18302e-311
-7.79559e-311
-8.36765e-311
-1.47887e-310
-1.77958e-310
-2.20146e-310
3.65557e-311
1.24695e-310
8.68077e-311
7.28288e-311
7.39123e-311
1.18509e-311
1.40641e-311
2.56698e-311
8.00124e-312
-5.49498e-311
-6.81233e-311
-2.57645e-311
-3.06815e-311
-5.3949e-311
-5.86855e-311
-3.48985e-311
-3.08711e-311
1.89727e-312
2.05975e-311
2.69998e-311
-1.73583e-311
-1.18653e-311
-2.40223e-311
-1.51921e-311
1.10626e-311
-5.82498e-312
-4.15975e-312
-2.74477e-312
-3.68557e-311
-5.01329e-311
-4.17367e-311
7.91082e-312
3.62869e-311
5.45255e-311
5.25414e-311
6.28285e-311
3.7384e-311
1.11759e-311
-4.64862e-311
-5.91744e-311
-6.54622e-311
-6.60529e-311
-1.78672e-311
1.92789e-311
4.97264e-311
-7.17593e-313
-2.8297e-311
1.69135e-311
-7.40701e-312
3.22645e-312
5.94305e-311
5.58747e-311
3.86313e-311
6.97045e-312
4.37149e-312
-5.65263e-312
-6.8396e-311
-1.13906e-310
-8.31806e-311
-8.50348e-311
-4.14894e-311
1.4241e-311
4.94047e-311
7.35256e-311
6.23595e-311
8.73765e-311
1.54601e-310
1.1519e-310
1.31189e-310
9.00288e-311
6.88922e-312
-2.58358e-311
-3.62029e-311
-6.93739e-311
-9.83829e-311
-1.45786e-311
-5.76437e-311
-4.45471e-311
-2.80852e-311
-1.14438e-310
8.94709e-312
2.36204e-311
-5.52841e-312
-1.39177e-311
2.22296e-311
-8.34581e-312
2.76667e-311
-2.86871e-312
-3.28346e-311
-5.86999e-311
-9.27767e-311
-9.11467e-311
-4.09577e-311
-4.08338e-311
-5.20165e-311
-5.41627e-311
-8.44264e-312
1.34651e-312
2.55474e-311
2.08405e-311
-6.82582e-312
1.97188e-312
-2.62666e-311
-1.34165e-311
3.95665e-312
6.52966e-312
-1.58476e-312
-6.11052e-312
-5.64927e-311
-1.7632e-311
-4.36502e-311
-9.94664e-312
1.36325e-311
2.78522e-311
2.15214e-311
5.65377e-311
5.67209e-311
2.07428e-311
-6.83757e-311
-4.55144e-311
-7.54618e-311
-5.95054e-311
-1.9356e-311
2.68806e-311
2.85545e-311
1.78425e-311
-1.63066e-311
-1.82646e-311
1.168e-311
2.49454e-311
7.27986e-311
8.39623e-311
4.28878e-311
2.37786e-311
3.45551e-311
-8.74452e-313
-6.61883e-311
-9.39542e-311
-1.15048e-310
-1.35035e-310
-6.53407e-311
-2.61708e-311
3.11915e-311
3.6437e-311
2.43353e-311
3.09628e-311
1.19738e-310
1.17057e-310
1.30119e-310
9.8847e-311
2.97419e-312
-1.02393e-311
-3.70769e-311
-6.70577e-311
-5.01739e-311
-8.84288e-313
3.26178e-311
6.62579e-312
6.93618e-312
-4.26114e-311
-1.04419e-310
-8.70355e-311
-2.02264e-311
-2.0794e-311
-4.67167e-312
1.59452e-311
3.85082e-311
-4.95228e-311
-9.13482e-311
-6.27641e-311
-1.02732e-310
-1.01464e-310
-6.58593e-311
-5.66475e-311
-2.69684e-311
-4.01574e-311
-4.32578e-311
-2.38715e-311
1.19571e-311
1.98112e-311
-1.14147e-311
1.17491e-312
-2.76023e-312
1.59105e-311
-1.30629e-311
1.40572e-311
1.42362e-311
-4.09733e-311
-6.21964e-311
-3.29397e-311
-1.52399e-311
-1.79123e-311
-1.14223e-312
1.78537e-311
3.52036e-311
3.79497e-311
4.59317e-311
7.42661e-311
-1.10038e-311
-2.68848e-311
-7.71892e-311
-5.69344e-311
-3.68025e-311
1.95235e-311
2.15672e-311
-6.74706e-312
-3.47107e-311
-4.26761e-311
-1.07059e-311
1.46529e-311
6.56116e-311
6.62459e-311
6.08174e-311
4.56633e-311
3.3321e-311
8.7633e-312
-6.84412e-311
-7.89096e-311
-1.51847e-310
-1.76734e-310
-9.70827e-311
-3.63584e-311
8.96927e-312
-1.13453e-311
-1.11459e-311
4.04687e-312
1.03234e-310
1.16965e-310
1.22502e-310
8.67485e-311
6.82189e-312
-2.12048e-311
-4.2875e-311
-7.92e-311
-1.004e-310
-7.50067e-311
-9.18041e-312
3.06047e-311
-3.50842e-312
-4.91279e-311
-9.6352e-311
-1.58441e-310
-6.31668e-311
-2.92335e-311
-1.1507e-311
-3.49519e-311
-7.07244e-311
-6.94227e-311
-8.76592e-311
-1.05457e-310
-1.4644e-310
-1.27028e-310
-1.32842e-310
-6.15616e-311
-3.63554e-311
-3.49174e-311
-3.35389e-311
5.32883e-312
9.91784e-312
-3.81904e-312
-1.6899e-311
2.71867e-311
3.13662e-311
3.55515e-312
2.3048e-312
-4.14074e-313
-1.03705e-311
-2.84009e-311
-3.04195e-311
-3.09908e-311
1.3299e-312
2.46821e-312
5.66017e-312
5.20256e-311
3.50286e-311
5.99464e-311
2.89574e-311
9.76104e-311
1.23007e-311
-8.9126e-312
-7.62153e-311
-6.82148e-311
-3.70707e-311
1.61462e-311
3.71111e-311
-1.01326e-311
-7.29292e-311
-6.68839e-311
-5.51591e-311
-3.74957e-312
2.99324e-311
4.39836e-311
4.1715e-311
3.83539e-311
2.47084e-311
-5.05161e-313
-2.36966e-311
-9.32854e-311
-1.81499e-310
-1.97501e-310
-1.59698e-310
-9.18877e-311
-3.49867e-311
-2.98008e-311
2.29311e-312
1.72315e-311
8.16457e-311
1.19636e-310
8.96329e-311
4.06997e-311
2.39671e-311
-4.75371e-311
-6.11933e-311
-3.82566e-311
-7.00839e-311
-3.97929e-311
-3.0838e-311
-1.49275e-311
6.12182e-312
3.04048e-311
-1.43511e-310
-1.58264e-310
-1.0658e-310
-1.05115e-310
-1.1676e-310
-1.11586e-310
-7.62719e-311
-5.75732e-311
-6.85579e-311
-1.20134e-310
-1.28637e-310
-1.25636e-310
-1.20275e-310
-7.87186e-311
-3.5866e-311
-4.17135e-312
-1.2843e-311
1.89903e-311
-1.78692e-312
1.25873e-312
5.74416e-312
4.22073e-311
3.68275e-311
3.24959e-311
4.24098e-311
1.72068e-311
3.72178e-312
-1.11861e-311
-2.34092e-311
-2.41388e-311
-1.76482e-312
2.0624e-311
6.37424e-312
2.62305e-311
4.11881e-311
5.79454e-311
5.51661e-311
6.41194e-311
3.32085e-311
7.76275e-312
-4.97997e-311
-6.8772e-311
-3.51728e-311
-7.07005e-312
1.74102e-311
7.3327e-312
-7.01685e-311
-7.5081e-311
-8.99795e-311
-3.66677e-311
3.83716e-311
4.39999e-311
9.46143e-312
3.18814e-311
7.38574e-312
1.18894e-312
1.96483e-313
-8.05438e-311
-1.8586e-310
-2.3245e-310
-2.13192e-310
-1.39643e-310
-1.01346e-310
-9.92702e-311
-8.31418e-311
-3.75944e-311
3.92962e-311
5.54077e-311
3.13149e-311
2.72951e-311
2.09784e-311
1.13768e-311
-7.90938e-312
-3.59366e-311
-5.37164e-311
-6.85604e-311
-5.25081e-311
-4.74841e-311
-3.11537e-311
-7.1425e-311
-5.44085e-311
-1.0639e-310
-1.09917e-310
-1.31489e-310
-1.55305e-310
-8.61692e-311
-6.03848e-311
-6.219e-311
-9.91109e-311
-1.11661e-310
-8.23807e-311
-8.06121e-311
-9.95547e-311
-6.82164e-311
-2.44732e-311
-4.55217e-311
-4.50002e-311
2.25221e-311
2.50676e-311
2.78595e-311
3.43213e-311
4.57353e-311
2.73359e-311
2.82275e-311
3.47414e-311
8.14587e-312
1.95067e-311
-1.0345e-311
-4.26352e-311
-2.82775e-311
-5.34593e-312
-8.63228e-312
1.07975e-311
2.93423e-311
1.80579e-311
4.4378e-311
7.2426e-311
5.64226e-311
4.7762e-311
-5.74891e-312
-4.95768e-311
-4.69262e-311
-4.29415e-311
-1.14907e-311
3.03013e-311
2.51492e-311
-4.85367e-311
-4.92636e-311
-6.85789e-311
-4.20081e-311
2.50485e-311
1.7468e-311
-4.13833e-312
8.14334e-312
-3.08748e-311
7.48296e-312
9.19165e-312
-4.47403e-311
-1.65006e-310
-2.38347e-310
-2.57071e-310
-1.74278e-310
-1.43253e-310
-1.61315e-310
-1.29603e-310
-1.01552e-310
-4.7273e-311
-2.31655e-311
-5.55549e-311
-4.17589e-311
-2.11413e-311
-2.82966e-312
-4.8143e-311
-3.08119e-311
-5.01886e-311
-8.42136e-311
-7.9089e-311
-4.86793e-311
-4.06211e-311
-8.1471e-311
7.79744e-311
-2.10906e-311
-7.6752e-311
-3.95539e-311
-9.30039e-311
-7.66899e-311
-9.52309e-311
-8.20606e-311
-8.67434e-311
-8.99635e-311
-2.31127e-311
-6.53576e-311
-5.59224e-311
-6.60153e-311
-3.00607e-311
-6.26304e-311
-3.93671e-311
2.6694e-311
5.31216e-311
5.34809e-311
2.55158e-311
4.87565e-311
2.74988e-311
4.141e-311
2.62567e-311
1.80174e-311
-8.37953e-312
-2.94022e-311
-4.57706e-311
-2.03845e-311
-3.64565e-312
-1.90575e-311
1.61141e-311
3.25307e-311
4.30001e-311
5.48038e-311
9.31968e-311
7.76447e-311
6.31628e-311
1.83052e-311
-2.92451e-311
-2.00934e-311
-4.49878e-312
2.93077e-311
5.49106e-312
3.78768e-311
-6.69061e-312
-4.5738e-311
-6.60757e-311
-4.51092e-311
-8.07336e-312
-3.94752e-312
6.70809e-312
1.14443e-311
-4.77823e-311
-2.83666e-312
-3.97806e-312
-2.5921e-311
-1.1321e-310
-2.03649e-310
-2.26657e-310
-1.68609e-310
-1.55705e-310
-1.42011e-310
-1.68417e-310
-1.29504e-310
-8.61251e-311
-7.76942e-311
-8.84997e-311
-7.27763e-311
-7.4149e-311
-1.05163e-310
-8.84473e-311
-8.16138e-311
-1.24831e-310
-8.4461e-311
-9.52564e-311
-4.94907e-311
-8.5674e-311
-8.22163e-311
1.2149e-310
6.38984e-311
-1.70413e-312
-5.62729e-311
-2.01205e-311
-7.81002e-311
-1.68703e-310
-9.9749e-311
-6.31548e-311
-8.1836e-311
-5.29577e-311
-5.58105e-311
-2.80618e-311
-6.53004e-311
-4.61243e-311
-6.47261e-311
-6.2025e-311
2.63483e-311
3.91536e-311
2.11431e-311
3.00909e-311
5.76589e-311
1.97182e-311
4.3104e-311
9.62752e-312
-5.15164e-312
-3.59846e-311
-5.78086e-311
-3.93637e-311
-2.56535e-311
-9.82592e-312
-3.0205e-311
-4.93392e-312
3.54176e-311
3.29336e-311
4.1369e-311
6.60708e-311
5.1103e-311
6.47886e-311
3.80968e-311
-1.62119e-311
-1.85948e-311
-1.36481e-311
2.26162e-311
6.32878e-312
4.13761e-312
-2.68721e-311
-4.4692e-311
-6.75339e-311
-5.31909e-311
-2.10365e-311
2.25852e-311
4.89223e-312
-1.89497e-311
-8.02006e-311
-6.93244e-311
-1.6442e-312
-1.14475e-311
-7.58479e-311
-1.50514e-310
-1.81248e-310
-1.55814e-310
-1.59733e-310
-1.40731e-310
-1.46517e-310
-1.0604e-310
-9.4159e-311
-8.16377e-311
-1.39551e-310
-1.07822e-310
-1.01116e-310
-1.47322e-310
-1.25124e-310
-9.01307e-311
-1.07235e-310
-9.69422e-311
-1.45561e-311
3.75674e-311
-3.85528e-311
-9.13432e-311
8.10213e-311
2.05284e-311
1.58382e-311
-2.53897e-311
-1.62338e-311
-5.98859e-311
-1.36691e-310
-1.3751e-310
-8.94668e-311
-9.92389e-311
-6.47844e-311
-2.60922e-311
-3.2829e-312
-4.84471e-311
-3.47971e-311
-6.28598e-311
-4.77707e-311
8.62034e-312
3.44785e-311
3.38639e-311
5.10507e-311
5.86822e-311
-1.28787e-311
-5.09878e-312
-3.82542e-311
-7.34006e-312
-2.43133e-311
-6.38135e-311
-4.69461e-311
-4.82535e-311
-4.57408e-311
-2.92452e-311
-4.66588e-312
1.51826e-311
1.83083e-311
3.24227e-311
3.92585e-311
3.92848e-311
5.7642e-311
5.49581e-311
4.80497e-312
-5.35552e-312
-3.05016e-311
-9.02905e-312
7.55799e-312
2.67403e-311
1.59473e-312
-4.26594e-312
-5.14737e-311
-6.76294e-311
-3.18043e-311
1.74336e-311
1.39133e-311
3.43061e-312
-5.94903e-311
-6.80621e-311
1.08334e-311
3.38645e-311
2.70898e-312
-7.96185e-311
-1.75479e-310
-1.66331e-310
-1.98503e-310
-1.56947e-310
-1.62144e-310
-1.11107e-310
-8.4687e-311
-6.45715e-311
-1.20606e-310
-1.28233e-310
-8.5282e-311
-1.51715e-310
-1.38596e-310
-7.50635e-311
-1.37585e-310
-1.2462e-310
-4.30412e-311
-3.25847e-311
-4.75022e-311
-9.16623e-311
1.9252e-310
6.45482e-311
-3.79671e-312
3.37563e-311
-5.01092e-311
-1.0266e-310
-1.92447e-310
-1.51782e-310
-9.48458e-311
-9.75649e-311
-6.52017e-311
2.6151e-313
-3.65711e-311
-2.57282e-311
-2.97199e-311
-4.92896e-311
-1.79154e-311
3.66756e-311
6.62604e-311
5.20332e-311
8.62386e-311
6.13098e-311
1.24909e-311
-2.68139e-312
-8.99822e-312
4.73746e-312
-1.31284e-311
-4.56288e-311
-5.43702e-311
-6.01602e-311
-6.40018e-311
-4.42714e-311
-3.87558e-311
-1.70765e-311
-9.35834e-312
2.69434e-311
6.84977e-311
8.65827e-311
8.08571e-311
7.53635e-311
5.148e-311
1.70014e-311
-3.78228e-312
-2.49045e-311
-8.82522e-312
2.95776e-311
2.35685e-311
-5.2686e-312
-3.66322e-311
-3.81834e-311
-1.60778e-312
1.35125e-311
2.33933e-311
3.68363e-311
-1.08069e-311
-3.25075e-311
3.3917e-311
6.40778e-311
5.45405e-311
-1.12523e-311
-1.31768e-310
-1.5274e-310
-1.66718e-310
-1.9214e-310
-1.73355e-310
-1.14438e-310
-9.61156e-311
-1.30008e-310
-1.58083e-310
-1.24444e-310
-6.93653e-311
-1.08529e-310
-1.58091e-310
-1.18995e-310
-1.00032e-310
-1.28414e-310
-1.07307e-310
-1.03976e-310
-6.12251e-311
-8.42592e-311
2.87956e-310
1.39088e-310
6.79281e-311
7.8093e-312
-5.69357e-311
-1.47834e-310
-2.16422e-310
-1.91402e-310
-1.05912e-310
-6.36859e-311
-2.95606e-311
-1.90752e-311
-5.43372e-311
-8.81823e-311
-6.84364e-311
-4.64893e-311
-3.46424e-311
5.55199e-311
2.17473e-311
6.03595e-311
8.10188e-311
6.323e-311
2.43698e-311
-1.9526e-313
2.56401e-311
2.68994e-311
-1.76162e-311
-4.3137e-311
-3.98455e-311
-3.53773e-311
-5.88242e-311
-3.96881e-311
-3.44743e-311
-2.08211e-311
-3.605e-312
3.00276e-311
7.6011e-311
1.00289e-310
9.79418e-311
6.51885e-311
4.8494e-311
-9.45333e-312
-3.0017e-311
-3.24614e-311
-1.67412e-311
2.31809e-311
3.47605e-311
1.13119e-311
-1.70121e-311
-3.48604e-311
1.78259e-311
1.78986e-311
3.89433e-311
3.60233e-311
-4.9068e-311
-7.46945e-311
-1.57795e-311
2.06164e-311
3.98399e-311
1.47145e-311
-5.82621e-311
-8.00178e-311
-1.20155e-310
-1.51752e-310
-1.61434e-310
-1.28617e-310
-1.34137e-310
-1.52007e-310
-1.72802e-310
-1.21782e-310
-1.11462e-310
-1.2936e-310
-1.06535e-310
-9.31958e-311
-1.21484e-310
-1.29428e-310
-9.70372e-311
-1.56465e-310
-1.48105e-310
-1.8797e-310
3.1696e-310
1.67663e-310
1.22517e-310
7.1255e-311
-6.92783e-311
-1.45693e-310
-1.93779e-310
-2.1538e-310
-1.31251e-310
-5.36894e-311
-3.59566e-311
-3.20001e-311
-4.19318e-311
-9.14776e-311
-1.23915e-310
-6.21384e-311