/*--------------------------------*- C++ -*----------------------------------*\
  =========                 |
  \\      /  F ield         | OpenFOAM: The Open Source CFD Toolbox
   \\    /   O peration     | Website:  https://openfoam.org
    \\  /    A nd           | Version:  11
     \\/     M anipulation  |
\*---------------------------------------------------------------------------*/
FoamFile
{
    format      ascii;
    class       volScalarField;
    location    "100";
    object      C;
}
// * * * * * * * * * * * * * * * * * * * * * * * * * * * * * * * * * * * * * //

dimensions      [0 0 0 1 0 0 0];

internalField   nonuniform List<scalar> 
427520
(
1.995e-201
1.99385e-201
1.84184e-201
1.61031e-201
1.35356e-201
1.10599e-201
8.85251e-202
6.97682e-202
5.43184e-202
4.18629e-202
3.19791e-202
2.42336e-202
1.82271e-202
1.36118e-202
1.0095e-202
7.43613e-203
5.44068e-203
3.95386e-203
2.85381e-203
2.04559e-203
1.45592e-203
1.02875e-203
7.21502e-204
5.02133e-204
3.46685e-204
2.37387e-204
1.61154e-204
1.08425e-204
7.22704e-205
4.77034e-205
3.11675e-205
2.01471e-205
1.28783e-205
8.13585e-206
5.07681e-206
3.12714e-206
1.90009e-206
1.13796e-206
6.71079e-207
3.89154e-207
2.21504e-207
1.24382e-207
6.9012e-208
3.78731e-208
2.05728e-208
1.10674e-208
5.89865e-209
3.1157e-209
1.63138e-209
8.46907e-210
4.3598e-210
2.22588e-210
1.12716e-210
5.66184e-211
2.82127e-211
1.39467e-211
6.83995e-212
3.32816e-212
1.60668e-212
7.6955e-213
3.65702e-213
1.72428e-213
8.06688e-214
3.74542e-214
1.72678e-214
7.91859e-215
3.62966e-215
1.68658e-215
8.2485e-216
4.60929e-216
3.28489e-216
3.07766e-216
3.46043e-216
4.20635e-216
5.21267e-216
6.40854e-216
7.69609e-216
8.90574e-216
9.76663e-216
9.91416e-216
8.69254e-201
7.58179e-201
6.54016e-201
5.54488e-201
4.61901e-201
3.78447e-201
3.05376e-201
2.4303e-201
1.91023e-201
1.48478e-201
1.14247e-201
8.70978e-202
6.5831e-202
4.93547e-202
3.67159e-202
2.71088e-202
1.98682e-202
1.44552e-202
1.04402e-202
7.48493e-203
5.32614e-203
3.76112e-203
2.63524e-203
1.83157e-203
1.26246e-203
8.62721e-204
5.8431e-204
3.92086e-204
2.60565e-204
1.71421e-204
1.1159e-204
7.18435e-205
4.57216e-205
2.87462e-205
1.78443e-205
1.09292e-205
6.59986e-206
3.92616e-206
2.29837e-206
1.32185e-206
7.44693e-207
4.14564e-207
2.2826e-207
1.2439e-207
6.71256e-208
3.58841e-208
1.9009e-208
9.98084e-209
5.19526e-209
2.68132e-209
1.37231e-209
6.96562e-210
3.50683e-210
1.75125e-210
8.67535e-211
4.26337e-211
2.07856e-211
1.00538e-211
4.82463e-212
2.29707e-212
1.0851e-212
5.08591e-213
2.36549e-213
1.09208e-213
5.00864e-214
2.28728e-214
1.04691e-214
4.89203e-215
2.44607e-215
1.43682e-215
1.09587e-215
1.07985e-215
1.23845e-215
1.50766e-215
1.86048e-215
2.28408e-215
2.7691e-215
3.30482e-215
3.88037e-215
4.49973e-215
2.88932e-200
2.4205e-200
1.98005e-200
1.6142e-200
1.31025e-200
1.05686e-200
8.45887e-201
6.71195e-201
5.27774e-201
4.11221e-201
3.17528e-201
2.43032e-201
1.8443e-201
1.388e-201
1.03616e-201
7.67394e-202
5.63902e-202
4.11158e-202
2.97462e-202
2.13526e-202
1.52063e-202
1.07421e-202
7.52612e-203
5.22844e-203
3.60066e-203
2.4574e-203
1.66154e-203
1.11257e-203
7.37497e-204
4.83742e-204
3.13824e-204
2.01259e-204
1.2752e-204
7.97812e-205
4.92535e-205
2.99836e-205
1.79846e-205
1.06193e-205
6.16524e-206
3.5126e-206
1.9561e-206
1.07785e-206
5.87971e-207
3.17653e-207
1.70017e-207
9.01757e-208
4.74061e-208
2.47061e-208
1.27663e-208
6.54137e-209
3.32404e-209
1.67532e-209
8.3753e-210
4.15344e-210
2.04337e-210
9.97347e-211
4.8298e-211
2.3207e-211
1.10647e-211
5.23509e-212
2.45813e-212
1.14562e-212
5.30077e-213
2.43622e-213
1.11354e-213
5.07807e-214
2.33067e-214
1.10213e-214
5.68193e-215
3.52991e-215
2.87066e-215
2.95311e-215
3.45523e-215
4.25004e-215
5.30099e-215
6.6175e-215
8.2389e-215
1.02305e-214
1.26624e-214
1.52555e-214
7.94539e-200
6.66101e-200
5.32345e-200
4.2171e-200
3.33604e-200
2.63565e-200
2.07685e-200
1.62992e-200
1.27252e-200
9.87446e-201
7.61106e-201
5.82478e-201
4.42484e-201
3.33601e-201
2.49585e-201
1.85284e-201
1.36477e-201
9.97338e-202
7.23022e-202
5.19919e-202
3.70794e-202
2.62222e-202
1.83846e-202
1.27757e-202
8.79721e-203
6.0007e-203
4.05329e-203
2.71019e-203
1.79307e-203
1.17329e-203
7.58946e-204
4.85042e-204
3.06096e-204
1.90621e-204
1.17064e-204
7.08413e-205
4.22084e-205
2.47363e-205
1.42406e-205
8.03566e-206
4.42227e-206
2.41065e-206
1.30192e-206
6.96774e-207
3.69598e-207
1.94343e-207
1.01313e-207
5.23695e-208
2.68443e-208
1.36469e-208
6.88125e-209
3.44185e-209
1.70785e-209
8.40766e-210
4.10688e-210
1.99067e-210
9.57588e-211
4.57193e-211
2.16679e-211
1.01952e-211
4.76349e-212
2.21069e-212
1.01953e-212
4.67628e-213
2.13699e-213
9.77198e-214
4.52185e-214
2.17936e-214
1.16758e-214
7.69909e-215
6.64656e-215
7.107e-215
8.49713e-215
1.06217e-214
1.34816e-214
1.71972e-214
2.19794e-214
2.80858e-214
3.55441e-214
4.2706e-214
1.9469e-199
1.65184e-199
1.31573e-199
1.02732e-199
7.98002e-200
6.19105e-200
4.79904e-200
3.71415e-200
2.86713e-200
2.20541e-200
1.68889e-200
1.28666e-200
9.74569e-201
7.33553e-201
5.48459e-201
4.07197e-201
3.00112e-201
2.19518e-201
1.59316e-201
1.14695e-201
8.18888e-202
5.79676e-202
4.06734e-202
2.82796e-202
1.94777e-202
1.32847e-202
8.96928e-203
5.99204e-203
3.95923e-203
2.58617e-203
1.66912e-203
1.06379e-203
6.69096e-204
4.15049e-204
2.53729e-204
1.5274e-204
9.04609e-205
5.26546e-205
3.00792e-205
1.68223e-205
9.15705e-206
4.94097e-206
2.6429e-206
1.40151e-206
7.36886e-207
3.84174e-207
1.98618e-207
1.01838e-207
5.17903e-208
2.61259e-208
1.30745e-208
6.49169e-209
3.19829e-209
1.56372e-209
7.5882e-210
3.6553e-210
1.74816e-210
8.30235e-211
3.91633e-211
1.83543e-211
8.54934e-212
3.95979e-212
1.82503e-212
8.38011e-213
3.84292e-213
1.76975e-213
8.29831e-214
4.0986e-214
2.29063e-214
1.59959e-214
1.4546e-214
1.6083e-214
1.96389e-214
2.49793e-214
3.22705e-214
4.19433e-214
5.46019e-214
7.07593e-214
8.97503e-214
1.0638e-213
4.4024e-199
3.78629e-199
3.03524e-199
2.36126e-199
1.81591e-199
1.39064e-199
1.06314e-199
8.11791e-200
6.18939e-200
4.70901e-200
3.5725e-200
2.70055e-200
2.03268e-200
1.52246e-200
1.13405e-200
8.39658e-201
6.1767e-201
4.5124e-201
3.27253e-201
2.35516e-201
1.68137e-201
1.19029e-201
8.35272e-202
5.80808e-202
4.00033e-202
2.72798e-202
1.84112e-202
1.22919e-202
8.11415e-203
5.29324e-203
3.41044e-203
2.16893e-203
1.36062e-203
8.41356e-204
5.12427e-204
3.07134e-204
1.80988e-204
1.04741e-204
5.94392e-205
3.29884e-205
1.7789e-205
9.51316e-206
5.04511e-206
2.65337e-206
1.38396e-206
7.1593e-207
3.67341e-207
1.86962e-207
9.4399e-208
4.72887e-208
2.35058e-208
1.15954e-208
5.6774e-209
2.75962e-209
1.33188e-209
6.38403e-210
3.03983e-210
1.43833e-210
6.76517e-211
3.16442e-211
1.47279e-211
6.8254e-212
3.15277e-212
1.4539e-212
6.71411e-213
3.12592e-213
1.49117e-213
7.57244e-214
4.41559e-214
3.24607e-214
3.08185e-214
3.50348e-214
4.3588e-214
5.63105e-214
7.38158e-214
9.72202e-214
1.27822e-213
1.66162e-213
2.09211e-213
2.44315e-213
9.3808e-199
8.16829e-199
6.61494e-199
5.16095e-199
3.95495e-199
3.00521e-199
2.27409e-199
1.71682e-199
1.29385e-199
9.7335e-200
7.30679e-200
5.4706e-200
4.08265e-200
3.03519e-200
2.24651e-200
1.65446e-200
1.21168e-200
8.82015e-201
6.37822e-201
4.57981e-201
3.26372e-201
2.30726e-201
1.61732e-201
1.1236e-201
7.7329e-202
5.26956e-202
3.55379e-202
2.37066e-202
1.56338e-202
1.01866e-202
6.55382e-203
4.16076e-203
2.60468e-203
1.60661e-203
9.75627e-204
5.82745e-204
3.42028e-204
1.97025e-204
1.11215e-204
6.13438e-205
3.28317e-205
1.743e-205
9.17832e-206
4.79388e-206
2.48359e-206
1.27634e-206
6.50693e-207
3.29117e-207
1.65173e-207
8.22625e-208
4.06638e-208
1.99544e-208
9.72267e-209
4.7049e-209
2.26179e-209
1.0805e-209
5.13129e-210
2.42347e-210
1.13888e-210
5.32844e-211
2.48386e-211
1.15469e-211
5.36022e-212
2.48972e-212
1.16135e-212
5.4829e-213
2.66797e-213
1.39459e-213
8.46128e-214
6.49631e-214
6.38166e-214
7.41599e-214
9.36819e-214
1.22538e-213
1.62329e-213
2.15472e-213
2.84228e-213
3.68217e-213
4.5856e-213
5.2837e-213
1.9099e-198
1.68057e-198
1.37593e-198
1.08019e-198
8.28423e-199
6.27197e-199
4.71406e-199
3.52769e-199
2.63217e-199
1.95943e-199
1.45544e-199
1.07855e-199
7.97108e-200
5.87266e-200
4.31096e-200
3.1514e-200
2.29289e-200
1.65948e-200
1.19407e-200
8.53725e-201
6.06179e-201
4.27212e-201
2.98682e-201
2.07045e-201
1.42224e-201
9.67577e-202
6.51568e-202
4.34046e-202
2.85856e-202
1.86001e-202
1.19494e-202
7.57407e-203
4.73296e-203
2.91342e-203
1.76507e-203
1.05146e-203
6.15237e-204
3.53161e-204
1.98549e-204
1.09008e-204
5.80181e-205
3.06323e-205
1.6043e-205
8.33464e-206
4.29535e-206
2.1961e-206
1.11401e-206
5.60739e-207
2.80114e-207
1.38896e-207
6.83779e-208
3.34286e-208
1.62336e-208
7.83333e-209
3.75719e-209
1.79203e-209
8.50352e-210
4.0166e-210
1.88975e-210
8.86274e-211
4.14716e-211
1.93847e-211
9.06514e-212
4.25133e-212
2.00785e-212
9.63289e-213
4.78782e-213
2.57443e-213
1.61776e-213
1.28615e-213
1.29641e-213
1.53158e-213
1.95725e-213
2.58331e-213
3.4451e-213
4.58874e-213
6.04626e-213
7.78047e-213
9.57805e-213
1.09115e-212
3.75156e-198
3.32989e-198
2.75472e-198
2.17905e-198
1.67673e-198
1.26857e-198
9.49693e-199
7.06142e-199
5.22609e-199
3.85444e-199
2.83473e-199
2.07935e-199
1.52122e-199
1.10974e-199
8.06984e-200
5.84718e-200
4.2195e-200
3.031e-200
2.16615e-200
1.53931e-200
1.08706e-200
7.62458e-201
5.30833e-201
3.66623e-201
2.51035e-201
1.70307e-201
1.14403e-201
7.60441e-202
4.99827e-202
3.24636e-202
2.08197e-202
1.3174e-202
8.21814e-203
5.0497e-203
3.05346e-203
1.81519e-203
1.05969e-203
6.06744e-204
3.40151e-204
1.86158e-204
9.87162e-205
5.19263e-205
2.70938e-205
1.40234e-205
7.2006e-206
3.66827e-206
1.85433e-206
9.3029e-207
4.63278e-207
2.29064e-207
1.12482e-207
5.48717e-208
2.66016e-208
1.28213e-208
6.14632e-209
2.9321e-209
1.39277e-209
6.5918e-210
3.11098e-210
1.4654e-210
6.89706e-211
3.24796e-211
1.53314e-211
7.27336e-212
3.48391e-212
1.70066e-212
8.63627e-213
4.76801e-213
3.08657e-213
2.52037e-213
2.58777e-213
3.0929e-213
3.98473e-213
5.29071e-213
7.08087e-213
9.43479e-213
1.23857e-212
1.58112e-212
1.92532e-212
2.17277e-212
7.16027e-198
6.40112e-198
5.34516e-198
4.26119e-198
3.29412e-198
2.49522e-198
1.86448e-198
1.38018e-198
1.01489e-198
7.42589e-199
5.41234e-199
3.93178e-199
2.84764e-199
2.05635e-199
1.48039e-199
1.06222e-199
7.59393e-200
5.40695e-200
3.83237e-200
2.70265e-200
1.8953e-200
1.32094e-200
9.14406e-201
6.28314e-201
4.28267e-201
2.89376e-201
1.93697e-201
1.28348e-201
8.4128e-202
5.45066e-202
3.48795e-202
2.20265e-202
1.37151e-202
8.41266e-203
5.07844e-203
3.01397e-203
1.75657e-203
1.00403e-203
5.61864e-204
3.06919e-204
1.62437e-204
8.52686e-205
4.43967e-205
2.29299e-205
1.17489e-205
5.97301e-206
3.01351e-206
1.50913e-206
7.50358e-207
3.70526e-207
1.8177e-207
8.86222e-208
4.29599e-208
2.07153e-208
9.94175e-209
4.75161e-209
2.26323e-209
1.07515e-209
5.09867e-210
2.41634e-210
1.14582e-210
5.44504e-211
2.59826e-211
1.24858e-211
6.07192e-212
3.01733e-212
1.56468e-212
8.84731e-213
5.8684e-213
4.88688e-213
5.07999e-213
6.11737e-213
7.92222e-213
1.05549e-212
1.41438e-212
1.88146e-212
2.45754e-212
3.11168e-212
3.75224e-212
4.20157e-212
1.33509e-197
1.2006e-197
1.01079e-197
8.11825e-198
6.3081e-198
4.78927e-198
3.57693e-198
2.64003e-198
1.93156e-198
1.40386e-198
1.01501e-198
7.30743e-199
5.2415e-199
3.74701e-199
2.66993e-199
1.8962e-199
1.34201e-199
9.46234e-200
6.64432e-200
4.64436e-200
3.23006e-200
2.23393e-200
1.5355e-200
1.04829e-200
7.10359e-201
4.7747e-201
3.18107e-201
2.09911e-201
1.37088e-201
8.85347e-202
5.64959e-202
3.55903e-202
2.21137e-202
1.35392e-202
8.15992e-203
4.83592e-203
2.81493e-203
1.60722e-203
8.98576e-204
4.90475e-204
2.59468e-204
1.36126e-204
7.083e-205
3.65571e-205
1.87186e-205
9.5106e-206
4.79594e-206
2.40097e-206
1.19366e-206
5.89532e-207
2.8936e-207
1.4121e-207
6.85496e-208
3.31208e-208
1.59376e-208
7.64325e-209
3.65604e-209
1.74588e-209
8.33171e-210
3.97819e-210
1.90314e-210
9.13738e-211
4.41235e-211
2.14951e-211
1.06178e-211
5.37086e-212
2.8411e-212
1.64083e-212
1.10982e-212
9.3706e-213
9.81472e-213
1.18689e-212
1.54139e-212
2.05673e-212
2.75501e-212
3.65439e-212
4.74698e-212
5.96387e-212
7.13023e-212
7.93265e-212
2.44226e-197
2.20697e-197
1.87129e-197
1.51322e-197
1.18189e-197
8.99885e-198
6.72382e-198
4.95342e-198
3.61001e-198
2.60896e-198
1.87297e-198
1.33731e-198
9.50486e-199
6.72847e-199
4.7456e-199
3.33533e-199
2.33591e-199
1.63002e-199
1.13304e-199
7.84287e-200
5.40388e-200
3.70453e-200
2.52539e-200
1.71094e-200
1.15127e-200
7.68895e-201
5.09314e-201
3.34353e-201
2.17361e-201
1.39815e-201
8.89092e-202
5.58425e-202
3.46098e-202
2.11457e-202
1.27227e-202
7.53008e-203
4.37893e-203
2.49867e-203
1.39661e-203
7.62437e-204
4.03671e-204
2.11928e-204
1.10342e-204
5.69848e-205
2.91969e-205
1.4845e-205
7.49218e-206
3.75456e-206
1.86893e-206
9.24454e-207
4.54604e-207
2.22362e-207
1.08246e-207
5.24765e-208
2.53527e-208
1.22161e-208
5.87589e-209
2.82411e-209
1.35783e-209
6.53915e-210
3.15909e-210
1.53369e-210
7.49945e-211
3.70513e-211
1.85909e-211
9.56763e-212
5.15593e-212
3.03354e-212
2.08396e-212
1.77614e-212
1.86768e-212
2.26243e-212
2.94115e-212
3.9249e-212
5.24987e-212
6.93961e-212
8.96438e-212
1.11821e-211
1.32702e-211
1.46846e-211
4.39786e-197
3.99022e-197
3.404e-197
2.76952e-197
2.17372e-197
1.66012e-197
1.24161e-197
9.13668e-198
6.63844e-198
4.77471e-198
3.40628e-198
2.4138e-198
1.70092e-198
1.19281e-198
8.32917e-199
5.79329e-199
4.0144e-199
2.77142e-199
1.90605e-199
1.30567e-199
8.90568e-200
6.04614e-200
4.08382e-200
2.74289e-200
1.83082e-200
1.21367e-200
7.98486e-201
5.20982e-201
3.36838e-201
2.15624e-201
1.36542e-201
8.54528e-202
5.28031e-202
3.2183e-202
1.93271e-202
1.14235e-202
6.63757e-203
3.7863e-203
2.11682e-203
1.15662e-203
6.13496e-204
3.22651e-204
1.68279e-204
8.70555e-205
4.46831e-205
2.27611e-205
1.15104e-205
5.78092e-206
2.88461e-206
1.43076e-206
7.05756e-207
3.46419e-207
1.69309e-207
8.24515e-208
4.00398e-208
1.94059e-208
9.396e-209
4.54973e-209
2.2059e-209
1.07235e-209
5.23502e-210
2.57121e-210
1.2735e-210
6.38104e-211
3.25128e-211
1.70108e-211
9.3255e-212
5.57681e-212
3.87916e-212
3.32677e-212
3.50328e-212
4.24348e-212
5.51496e-212
7.35337e-212
9.8154e-212
1.29267e-211
1.66097e-211
2.05863e-211
2.4275e-211
2.67423e-211
7.81707e-197
7.11632e-197
6.10255e-197
4.99191e-197
3.93571e-197
3.01485e-197
2.25759e-197
1.66026e-197
1.20337e-197
8.61997e-198
6.11523e-198
4.30367e-198
3.00843e-198
2.09095e-198
1.446e-198
9.95511e-199
6.82538e-199
4.66117e-199
3.17089e-199
2.14861e-199
1.44995e-199
9.74209e-200
6.5148e-200
4.3342e-200
2.86715e-200
1.88483e-200
1.23052e-200
7.97239e-201
5.12192e-201
3.26033e-201
2.05443e-201
1.28033e-201
7.8836e-202
4.79137e-202
2.87119e-202
1.69452e-202
9.83781e-203
5.61102e-203
3.13876e-203
1.7174e-203
9.1332e-204
4.81575e-204
2.51818e-204
1.30616e-204
6.72238e-205
3.43405e-205
1.74184e-205
8.77616e-206
4.39437e-206
2.1878e-206
1.08363e-206
5.34305e-207
2.62441e-207
1.2851e-207
6.27872e-208
3.06361e-208
1.49441e-208
7.29578e-209
3.56937e-209
1.75245e-209
8.64852e-210
4.29833e-210
2.15644e-210
1.09558e-210
5.66555e-211
3.01079e-211
1.67676e-211
1.01725e-211
7.1487e-212
6.15637e-212
6.48241e-212
7.84289e-212
1.01817e-211
1.35563e-211
1.80521e-211
2.3687e-211
3.02863e-211
3.73244e-211
4.37719e-211
4.80407e-211
1.37458e-196
1.25486e-196
1.08089e-196
8.88338e-197
7.03228e-197
5.40223e-197
4.05066e-197
2.97795e-197
2.15421e-197
1.53764e-197
1.08541e-197
7.59068e-198
5.26672e-198
3.62969e-198
2.4869e-198
1.69515e-198
1.15011e-198
7.7697e-199
5.22749e-199
3.50301e-199
2.33794e-199
1.55385e-199
1.02816e-199
6.77086e-200
4.43576e-200
2.88944e-200
1.87036e-200
1.20229e-200
7.66922e-201
4.85065e-201
3.03935e-201
1.88494e-201
1.15592e-201
7.00213e-202
4.18544e-202
2.46592e-202
1.4303e-202
8.15686e-203
4.56633e-203
2.50285e-203
1.33522e-203
7.06284e-204
3.70524e-204
1.92835e-204
9.95913e-205
5.106e-205
2.5998e-205
1.3152e-205
6.61385e-206
3.308e-206
1.64661e-206
8.16249e-207
4.03255e-207
1.98707e-207
9.77479e-208
4.80492e-208
2.36274e-208
1.16361e-208
5.74689e-209
2.85053e-209
1.42234e-209
7.15319e-210
3.63437e-210
1.87141e-210
9.81535e-211
5.29286e-211
2.99066e-211
1.83784e-211
1.3029e-211
1.1255e-211
1.18417e-211
1.43027e-211
1.85397e-211
2.46424e-211
3.27339e-211
4.28015e-211
5.44824e-211
6.68096e-211
7.79845e-211
8.53216e-211
2.39561e-196
2.19205e-196
1.89531e-196
1.56404e-196
1.24259e-196
9.57048e-197
7.18544e-197
5.28179e-197
3.81452e-197
2.71432e-197
1.90743e-197
1.32625e-197
9.13842e-198
6.24795e-198
4.24303e-198
2.8645e-198
1.92371e-198
1.28576e-198
8.55589e-199
5.66953e-199
3.74151e-199
2.45901e-199
1.60928e-199
1.04848e-199
6.79843e-200
4.38523e-200
2.81249e-200
1.79245e-200
1.13439e-200
7.12388e-201
4.43556e-201
2.73573e-201
1.66985e-201
1.0077e-201
6.00581e-202
3.53122e-202
2.0459e-202
1.16653e-202
6.53561e-203
3.5891e-203
1.92136e-203
1.02e-203
5.37107e-204
2.80619e-204
1.45517e-204
7.49233e-205
3.83188e-205
1.94763e-205
9.84304e-206
4.94921e-206
2.47745e-206
1.2355e-206
6.14313e-207
3.04796e-207
1.51044e-207
7.48365e-208
3.71124e-208
1.84437e-208
9.19777e-209
4.60962e-209
2.32552e-209
1.18325e-209
6.08621e-210
3.17459e-210
1.68747e-210
9.22455e-211
5.28214e-211
3.28419e-211
2.34672e-211
2.03279e-211
2.13703e-211
2.57679e-211
3.33482e-211
4.42476e-211
5.86369e-211
7.64246e-211
9.68958e-211
1.18306e-210
1.37544e-210
1.50089e-210
4.14418e-196
3.79944e-196
3.29568e-196
2.72922e-196
2.17512e-196
1.6792e-196
1.26227e-196
9.27809e-197
6.69128e-197
4.74828e-197
3.32322e-197
2.29845e-197
1.57355e-197
1.06781e-197
7.1908e-198
4.81e-198
3.19843e-198
2.11553e-198
1.39253e-198
9.12508e-199
5.95413e-199
3.86897e-199
2.5036e-199
1.61318e-199
1.0348e-199
6.6061e-200
4.1954e-200
2.64924e-200
1.66237e-200
1.03584e-200
6.40457e-201
3.92597e-201
2.38381e-201
1.43233e-201
8.50775e-202
4.99022e-202
2.88712e-202
1.64555e-202
9.22587e-203
5.07631e-203
2.72733e-203
1.45341e-203
7.68418e-204
4.03175e-204
2.10003e-204
1.08634e-204
5.58344e-205
2.85268e-205
1.44963e-205
7.33127e-206
3.69241e-206
1.8534e-206
9.27908e-207
4.63763e-207
2.31611e-207
1.15702e-207
5.78809e-208
2.9032e-208
1.46202e-208
7.40312e-209
3.77554e-209
1.94299e-209
1.01132e-209
5.34022e-210
2.87463e-210
1.59153e-210
9.22643e-211
5.7991e-211
4.17511e-211
3.62758e-211
3.81264e-211
4.59128e-211
5.93377e-211
7.86053e-211
1.03942e-210
1.35083e-210
1.7067e-210
2.07605e-210
2.40544e-210
2.61903e-210
7.12493e-196
6.54289e-196
5.69089e-196
4.72695e-196
3.77759e-196
2.92231e-196
2.19916e-196
1.61643e-196
1.16433e-196
8.24201e-197
5.7472e-197
3.95566e-197
2.69195e-197
1.81399e-197
1.2119e-197
8.03567e-198
5.29276e-198
3.46552e-198
2.25703e-198
1.46282e-198
9.43805e-199
6.06328e-199
3.879e-199
2.47129e-199
1.56776e-199
9.90147e-200
6.22372e-200
3.89185e-200
2.4199e-200
1.49525e-200
9.1749e-201
5.58631e-201
3.37219e-201
2.01634e-201
1.19302e-201
6.97774e-202
4.02982e-202
2.2953e-202
1.28752e-202
7.09717e-203
3.82669e-203
2.04716e-203
1.08683e-203
5.72769e-204
2.99744e-204
1.55828e-204
8.0512e-205
4.13631e-205
2.11422e-205
1.07582e-205
5.45364e-206
2.75621e-206
1.38987e-206
6.99936e-207
3.52362e-207
1.7751e-207
8.95893e-208
4.53553e-208
2.30637e-208
1.17979e-208
6.08086e-209
3.16393e-209
1.66559e-209
8.89804e-210
4.84682e-210
2.71542e-210
1.59237e-210
1.01117e-210
7.3354e-211
6.39759e-211
6.72895e-211
8.09882e-211
1.04572e-210
1.38347e-210
1.82597e-210
2.36708e-210
2.98168e-210
3.61534e-210
4.17691e-210
4.53934e-210
1.21869e-195
1.12066e-195
9.76989e-196
8.13595e-196
6.51727e-196
5.05075e-196
3.80461e-196
2.79644e-196
2.01211e-196
1.42117e-196
9.87675e-197
6.76766e-197
4.58021e-197
3.06631e-197
2.03332e-197
1.33705e-197
8.72702e-198
5.65879e-198
3.64773e-198
2.33889e-198
1.4924e-198
9.47982e-199
5.99589e-199
3.77661e-199
2.36896e-199
1.47973e-199
9.2023e-200
5.69601e-200
3.50777e-200
2.14812e-200
1.30735e-200
7.90181e-201
4.7394e-201
2.81842e-201
1.66025e-201
9.67806e-202
5.57693e-202
3.17318e-202
1.7803e-202
9.82889e-203
5.31745e-203
2.85535e-203
1.52215e-203
8.05762e-204
4.23694e-204
2.21391e-204
1.15006e-204
5.94234e-205
3.05573e-205
1.56483e-205
7.98577e-206
4.06437e-206
2.0647e-206
1.04785e-206
5.31797e-207
2.70182e-207
1.37571e-207
7.02912e-208
3.60878e-208
1.86443e-208
9.70869e-209
5.10511e-209
2.71667e-209
1.46735e-209
8.08192e-210
4.57829e-210
2.71391e-210
1.74052e-210
1.27268e-210
1.11541e-210
1.17562e-210
1.41562e-210
1.8273e-210
2.41531e-210
3.18297e-210
4.11746e-210
5.17321e-210
6.25556e-210
7.20963e-210
7.823e-210
2.07561e-195
1.91085e-195
1.66914e-195
1.39304e-195
1.11815e-195
8.67881e-196
6.54305e-196
4.80914e-196
3.4569e-196
2.43675e-196
1.68832e-196
1.15214e-196
7.75778e-197
5.16219e-197
3.39932e-197
2.21787e-197
1.43523e-197
9.22029e-198
5.88503e-198
3.73441e-198
2.35725e-198
1.48079e-198
9.2606e-199
5.76691e-199
3.57659e-199
2.20918e-199
1.35894e-199
8.32334e-200
5.07458e-200
3.07848e-200
1.85733e-200
1.11378e-200
6.63372e-201
3.92126e-201
2.29842e-201
1.33463e-201
7.66987e-202
4.35746e-202
2.44419e-202
1.35104e-202
7.33128e-203
3.95052e-203
2.11425e-203
1.12406e-203
5.93858e-204
3.11886e-204
1.62898e-204
8.46561e-205
4.37993e-205
2.25743e-205
1.15985e-205
5.94511e-206
3.04263e-206
1.55619e-206
7.96198e-207
4.07931e-207
2.09534e-207
1.08034e-207
5.5986e-208
2.92042e-208
1.53585e-208
8.15779e-209
4.38584e-209
2.39357e-209
1.33212e-209
7.62492e-210
4.56633e-210
2.95726e-210
2.1809e-210
1.92341e-210
2.03462e-210
2.45407e-210
3.16914e-210
4.18718e-210
5.51171e-210
7.11746e-210
8.92316e-210
1.07653e-209
1.23818e-209
1.34176e-209
3.52251e-195
3.24602e-195
2.8401e-195
2.37473e-195
1.90941e-195
1.48401e-195
1.11961e-195
8.22884e-196
5.90976e-196
4.1582e-196
2.87307e-196
1.95333e-196
1.30911e-196
8.66243e-197
5.66736e-197
3.67068e-197
2.35624e-197
1.50046e-197
9.48715e-198
5.96044e-198
3.72331e-198
2.31381e-198
1.43107e-198
8.81224e-199
5.4039e-199
3.30058e-199
2.00797e-199
1.2167e-199
7.34167e-200
4.41036e-200
2.63664e-200
1.56788e-200
9.26831e-201
5.44264e-201
3.1725e-201
1.83402e-201
1.05053e-201
5.95622e-202
3.33856e-202
1.84676e-202
1.00468e-202
5.43064e-203
2.91691e-203
1.55715e-203
8.26394e-204
4.36157e-204
2.2902e-204
1.19699e-204
6.23054e-205
3.23184e-205
1.67171e-205
8.62944e-206
4.44912e-206
2.2931e-206
1.18264e-206
6.10961e-207
3.16518e-207
1.64639e-207
8.60974e-208
4.533e-208
2.40657e-208
1.2906e-208
7.00616e-209
3.86104e-209
2.16987e-209
1.25419e-209
7.58487e-210
4.96047e-210
3.6926e-210
3.28227e-210
3.49072e-210
4.22289e-210
5.46022e-210
7.21492e-210
9.49006e-210
1.2238e-209
1.53155e-209
1.8442e-209
2.11747e-209
2.29211e-209
5.96026e-195
5.49688e-195
4.8162e-195
4.03339e-195
3.24783e-195
2.52707e-195
1.90771e-195
1.40203e-195
1.00609e-195
7.06736e-196
4.8709e-196
3.30039e-196
2.20246e-196
1.44989e-196
9.4292e-197
6.0658e-197
3.86437e-197
2.44059e-197
1.52946e-197
9.51835e-198
5.88678e-198
3.62039e-198
2.21526e-198
1.34921e-198
8.18227e-199
4.94214e-199
2.97356e-199
1.78232e-199
1.06419e-199
6.32872e-200
3.74764e-200
2.20894e-200
1.29534e-200
7.55261e-201
4.37551e-201
2.51677e-201
1.43605e-201
8.12062e-202
4.54583e-202
2.515e-202
1.37092e-202
7.4295e-203
4.00322e-203
2.145e-203
1.14317e-203
6.06168e-204
3.19918e-204
1.68129e-204
8.80303e-205
4.59481e-205
2.39242e-205
1.24355e-205
6.4579e-206
3.35357e-206
1.74311e-206
9.07798e-207
4.74223e-207
2.48785e-207
1.31242e-207
6.97155e-208
3.73473e-208
2.02119e-208
1.10732e-208
6.15847e-209
3.49286e-209
2.0376e-209
1.244e-209
8.21738e-210
6.18081e-210
5.54685e-210
5.94158e-210
7.21886e-210
9.35358e-210
1.2367e-209
1.62609e-209
2.09477e-209
2.61778e-209
3.14718e-209
3.60837e-209
3.90244e-209
1.006e-194
9.28422e-195
8.14414e-195
6.82953e-195
5.50621e-195
4.28836e-195
3.23893e-195
2.38022e-195
1.70675e-195
1.19715e-195
8.2322e-196
5.5608e-196
3.69649e-196
2.422e-196
1.56648e-196
1.00142e-196
6.33523e-197
3.97039e-197
2.46746e-197
1.52191e-197
9.32378e-198
5.67748e-198
3.43831e-198
2.07199e-198
1.24302e-198
7.42619e-199
4.41949e-199
2.62041e-199
1.54808e-199
9.1123e-200
5.34338e-200
3.12067e-200
1.81454e-200
1.04994e-200
6.04222e-201
3.45593e-201
1.96309e-201
1.10648e-201
6.18195e-202
3.41853e-202
1.86583e-202
1.01317e-202
5.47359e-203
2.94231e-203
1.57403e-203
8.38213e-204
4.44494e-204
2.34815e-204
1.23638e-204
6.49215e-205
3.40184e-205
1.78007e-205
9.30895e-206
4.86942e-206
2.55017e-206
1.33849e-206
7.04833e-207
3.7281e-207
1.98319e-207
1.06245e-207
5.74064e-208
3.13366e-208
1.73166e-208
9.71408e-209
5.55717e-209
3.2704e-209
2.01529e-209
1.34508e-209
1.02347e-209
9.29042e-210
1.00415e-209
1.22691e-209
1.59434e-209
2.11035e-209
2.77479e-209
3.572e-209
4.45877e-209
5.35356e-209
6.13082e-209
6.62549e-209
1.69446e-194
1.56468e-194
1.3739e-194
1.15343e-194
9.30908e-195
7.25593e-195
5.48256e-195
4.02865e-195
2.88681e-195
2.02217e-195
1.38771e-195
9.34799e-196
6.19216e-196
4.0399e-196
2.59982e-196
1.65248e-196
1.03867e-196
6.4633e-197
3.98564e-197
2.43785e-197
1.48027e-197
8.92952e-198
5.35496e-198
3.19436e-198
1.89644e-198
1.12101e-198
6.60027e-199
3.87178e-199
2.26328e-199
1.31852e-199
7.65503e-200
4.42863e-200
2.55242e-200
1.46502e-200
8.37036e-201
4.75789e-201
2.68885e-201
1.50961e-201
8.41207e-202
4.64618e-202
2.53723e-202
1.37951e-202
7.46746e-203
4.02468e-203
2.16003e-203
1.15465e-203
6.14945e-204
3.26421e-204
1.72773e-204
9.12349e-205
4.80948e-205
2.53269e-205
1.33335e-205
7.02332e-206
3.70484e-206
1.95908e-206
1.03955e-206
5.5417e-207
2.9715e-207
1.60478e-207
8.74161e-208
4.81077e-208
2.68009e-208
1.51567e-208
8.74156e-209
5.18785e-209
3.22647e-209
2.177e-209
1.67798e-209
1.54359e-209
1.68649e-209
2.07483e-209
2.70604e-209
3.58749e-209
4.71851e-209
6.07152e-209
7.57222e-209
9.08235e-209
1.03909e-208
1.12224e-208
2.84909e-194
2.63215e-194
2.31314e-194
1.94378e-194
1.57017e-194
1.22469e-194
9.25683e-195
6.80136e-195
4.87066e-195
3.40775e-195
2.33431e-195
1.56854e-195
1.03573e-195
6.7313e-196
4.31215e-196
2.72656e-196
1.70371e-196
1.05324e-196
6.4485e-197
3.91383e-197
2.35685e-197
1.40928e-197
8.37355e-198
4.94713e-198
2.90792e-198
1.70146e-198
9.91441e-199
5.75543e-199
3.32953e-199
1.91985e-199
1.10353e-199
6.32307e-200
3.61126e-200
2.05533e-200
1.16535e-200
6.57949e-201
3.69704e-201
2.06612e-201
1.14746e-201
6.32529e-202
3.45318e-202
1.87844e-202
1.01809e-202
5.49781e-203
2.95834e-203
1.58648e-203
8.48119e-204
4.52129e-204
2.40453e-204
1.27636e-204
6.76613e-205
3.58437e-205
1.8989e-205
1.00683e-205
5.34753e-206
2.84775e-206
1.52211e-206
8.17447e-207
4.41634e-207
2.4033e-207
1.31919e-207
7.31565e-208
4.10677e-208
2.34023e-208
1.36014e-208
8.13774e-209
5.1082e-209
3.48671e-209
2.72641e-209
2.54664e-209
2.81733e-209
3.49388e-209
4.57645e-209
6.07909e-209
8.00043e-209
1.02925e-208
1.28283e-208
1.5374e-208
1.75752e-208
1.89719e-208
4.78355e-194
4.4211e-194
3.88799e-194
3.26976e-194
2.64325e-194
2.06281e-194
1.5596e-194
1.14578e-194
8.20074e-195
5.73151e-195
3.91972e-195
2.62803e-195
1.73041e-195
1.12072e-195
7.15013e-196
4.49966e-196
2.79662e-196
1.71859e-196
1.04533e-196
6.2994e-197
3.76445e-197
2.23265e-197
1.31518e-197
7.70016e-198
4.4838e-198
2.5982e-198
1.49902e-198
8.61472e-199
4.9334e-199
2.81613e-199
1.6027e-199
9.09508e-200
5.14661e-200
2.90377e-200
1.63322e-200
9.15462e-201
5.1117e-201
2.84176e-201
1.57182e-201
8.64078e-202
4.71186e-202
2.56225e-202
1.38931e-202
7.51133e-203
4.04941e-203
2.1771e-203
1.16752e-203
6.24709e-204
3.33637e-204
1.7793e-204
9.48051e-205
5.04993e-205
2.69095e-205
1.43556e-205
7.67356e-206
4.11359e-206
2.21372e-206
1.19719e-206
6.5139e-207
3.57019e-207
1.97383e-207
1.10248e-207
6.23338e-208
3.57757e-208
2.09453e-208
1.26309e-208
8.00372e-209
5.53125e-209
4.39493e-209
4.17634e-209
4.68551e-209
5.86289e-209
7.7167e-209
1.02739e-208
1.35322e-208
1.74092e-208
2.16887e-208
2.59759e-208
2.96763e-208
3.20214e-208
8.02165e-194
7.41637e-194
6.52591e-194
5.49186e-194
4.44233e-194
3.46844e-194
2.62292e-194
1.92676e-194
1.37836e-194
9.62426e-195
6.57245e-195
4.39794e-195
2.88851e-195
1.86501e-195
1.18551e-195
7.42887e-196
4.59491e-196
2.80846e-196
1.69809e-196
1.01667e-196
6.033e-197
3.55129e-197
2.07532e-197
1.2049e-197
6.95474e-198
3.99344e-198
2.28245e-198
1.29917e-198
7.3679e-199
4.16488e-199
2.34737e-199
1.31943e-199
7.39733e-200
4.13686e-200
2.30754e-200
1.28361e-200
7.1188e-201
3.9345e-201
2.16588e-201
1.18647e-201
6.45678e-202
3.50687e-202
1.90072e-202
1.02799e-202
5.54798e-203
2.98809e-203
1.60633e-203
8.62105e-204
4.6207e-204
2.4743e-204
1.32435e-204
7.08928e-205
3.79775e-205
2.03744e-205
1.09553e-205
5.909e-206
3.20014e-206
1.74192e-206
9.54057e-207
5.26411e-207
2.92992e-207
1.64752e-207
9.37747e-208
5.41838e-208
3.1944e-208
1.94134e-208
1.24216e-208
8.70026e-209
7.03673e-209
6.81544e-209
7.76475e-209
9.81056e-209
1.29804e-208
1.73255e-208
2.28433e-208
2.93928e-208
3.66076e-208
4.38221e-208
5.00395e-208
5.39757e-208
1.34379e-193
1.24275e-193
1.09407e-193
9.21226e-194
7.45558e-194
5.82335e-194
4.40454e-194
3.23518e-194
2.31334e-194
1.61392e-194
1.10075e-194
7.3529e-195
4.81853e-195
3.10265e-195
1.96579e-195
1.22718e-195
7.55757e-196
4.59689e-196
2.76452e-196
1.64544e-196
9.702e-197
5.67198e-197
3.29047e-197
1.89568e-197
1.08533e-197
6.1794e-198
3.50091e-198
1.97478e-198
1.10964e-198
6.21411e-199
3.46961e-199
1.93212e-199
1.07336e-199
5.94969e-200
3.29083e-200
1.8162e-200
1.00003e-200
5.49198e-201
3.00698e-201
1.64022e-201
8.90045e-202
4.82402e-202
2.61123e-202
1.41153e-202
7.61978e-203
4.10789e-203
2.21194e-203
1.18983e-203
6.39554e-204
3.43636e-204
1.84644e-204
9.92689e-205
5.343e-205
2.881e-205
1.55743e-205
8.44767e-206
4.60172e-206
2.51988e-206
1.3886e-206
7.70931e-207
4.31768e-207
2.44304e-207
1.39925e-207
8.13617e-208
4.82869e-208
2.95718e-208
1.91141e-208
1.35844e-208
1.12043e-208
1.10801e-208
1.28329e-208
1.63808e-208
2.17929e-208
2.91659e-208
3.84982e-208
4.95508e-208
6.17037e-208
7.38368e-208
8.4279e-208
9.08839e-208
2.24919e-193
2.08057e-193
1.83241e-193
1.54363e-193
1.24982e-193
9.76508e-194
7.38694e-194
5.42523e-194
3.87783e-194
2.70341e-194
1.84178e-194
1.22841e-194
8.03433e-195
5.16081e-195
3.26038e-195
2.02851e-195
1.24445e-195
7.53662e-196
4.51065e-196
2.67057e-196
1.5656e-196
9.09616e-197
5.24199e-197
2.99872e-197
1.70412e-197
9.627e-198
5.40993e-198
3.02601e-198
1.68567e-198
9.35686e-199
5.17781e-199
2.8576e-199
1.57342e-199
8.6457e-200
4.74183e-200
2.59611e-200
1.41882e-200