/*--------------------------------*- C++ -*----------------------------------*\
  =========                 |
  \\      /  F ield         | OpenFOAM: The Open Source CFD Toolbox
   \\    /   O peration     | Website:  https://openfoam.org
    \\  /    A nd           | Version:  11
     \\/     M anipulation  |
\*---------------------------------------------------------------------------*/
FoamFile
{
    format      ascii;
    class       volScalarField;
    location    "20";
    object      C;
}
// * * * * * * * * * * * * * * * * * * * * * * * * * * * * * * * * * * * * * //

dimensions      [0 0 0 1 0 0 0];

internalField   nonuniform List<scalar> 
503040
(
1.85751e-13
1.85444e-13
1.84917e-13
1.84223e-13
1.83399e-13
1.82472e-13
1.81462e-13
1.80387e-13
1.79261e-13
1.78097e-13
1.76906e-13
1.75697e-13
1.74478e-13
1.73257e-13
1.72042e-13
1.70837e-13
1.6965e-13
1.68483e-13
1.67343e-13
1.66233e-13
1.65157e-13
1.64117e-13
1.63118e-13
1.62162e-13
1.61252e-13
1.60389e-13
1.59575e-13
1.58813e-13
1.58104e-13
1.5745e-13
1.56851e-13
1.56309e-13
1.55825e-13
1.55399e-13
1.55033e-13
1.54727e-13
1.54482e-13
1.54298e-13
1.54175e-13
1.54113e-13
1.54113e-13
1.54175e-13
1.54298e-13
1.54482e-13
1.54727e-13
1.55033e-13
1.55399e-13
1.55825e-13
1.56309e-13
1.56851e-13
1.5745e-13
1.58104e-13
1.58813e-13
1.59575e-13
1.60389e-13
1.61252e-13
1.62162e-13
1.63119e-13
1.64117e-13
1.65157e-13
1.66233e-13
1.67343e-13
1.68483e-13
1.6965e-13
1.70837e-13
1.72042e-13
1.73257e-13
1.74478e-13
1.75697e-13
1.76906e-13
1.78097e-13
1.79261e-13
1.80387e-13
1.81462e-13
1.82472e-13
1.834e-13
1.84224e-13
1.84917e-13
1.85444e-13
1.85751e-13
5.5873e-13
5.58053e-13
5.56824e-13
5.55141e-13
5.53084e-13
5.50718e-13
5.48098e-13
5.45273e-13
5.42282e-13
5.39162e-13
5.35945e-13
5.32657e-13
5.29325e-13
5.25972e-13
5.22617e-13
5.1928e-13
5.15977e-13
5.12723e-13
5.09533e-13
5.06419e-13
5.03392e-13
5.00464e-13
4.97643e-13
4.94937e-13
4.92356e-13
4.89906e-13
4.87594e-13
4.85425e-13
4.83404e-13
4.81537e-13
4.79827e-13
4.78278e-13
4.76893e-13
4.75676e-13
4.74628e-13
4.73752e-13
4.73049e-13
4.7252e-13
4.72168e-13
4.71991e-13
4.71991e-13
4.72168e-13
4.7252e-13
4.73049e-13
4.73752e-13
4.74628e-13
4.75676e-13
4.76894e-13
4.78278e-13
4.79827e-13
4.81537e-13
4.83404e-13
4.85425e-13
4.87594e-13
4.89907e-13
4.92357e-13
4.94938e-13
4.97643e-13
5.00464e-13
5.03392e-13
5.06419e-13
5.09533e-13
5.12724e-13
5.15977e-13
5.1928e-13
5.22617e-13
5.25972e-13
5.29326e-13
5.32657e-13
5.35945e-13
5.39163e-13
5.42283e-13
5.45273e-13
5.48098e-13
5.50718e-13
5.53084e-13
5.55141e-13
5.56824e-13
5.58053e-13
5.5873e-13
9.34614e-13
9.33671e-13
9.31923e-13
9.29487e-13
9.26469e-13
9.22958e-13
9.19035e-13
9.14769e-13
9.10223e-13
9.05451e-13
9.00506e-13
8.9543e-13
8.90266e-13
8.85049e-13
8.79814e-13
8.74591e-13
8.69409e-13
8.64292e-13
8.59263e-13
8.54345e-13
8.49557e-13
8.44915e-13
8.40438e-13
8.36139e-13
8.32031e-13
8.28128e-13
8.24439e-13
8.20976e-13
8.17747e-13
8.14761e-13
8.12024e-13
8.09544e-13
8.07325e-13
8.05373e-13
8.03693e-13
8.02287e-13
8.01158e-13
8.0031e-13
7.99744e-13
7.9946e-13
7.9946e-13
7.99744e-13
8.0031e-13
8.01158e-13
8.02287e-13
8.03693e-13
8.05373e-13
8.07325e-13
8.09544e-13
8.12024e-13
8.14761e-13
8.17747e-13
8.20976e-13
8.24439e-13
8.28128e-13
8.32031e-13
8.36139e-13
8.40438e-13
8.44916e-13
8.49557e-13
8.54345e-13
8.59264e-13
8.64292e-13
8.69409e-13
8.74592e-13
8.79814e-13
8.85049e-13
8.90266e-13
8.9543e-13
9.00506e-13
9.05452e-13
9.10223e-13
9.14769e-13
9.19035e-13
9.22959e-13
9.26469e-13
9.29487e-13
9.31923e-13
9.33672e-13
9.34614e-13
1.31443e-12
1.31328e-12
1.31112e-12
1.30809e-12
1.30429e-12
1.29985e-12
1.29484e-12
1.28937e-12
1.28351e-12
1.27733e-12
1.2709e-12
1.26428e-12
1.25752e-12
1.25067e-12
1.24378e-12
1.23689e-12
1.23003e-12
1.22325e-12
1.21657e-12
1.21003e-12
1.20365e-12
1.19746e-12
1.19148e-12
1.18573e-12
1.18023e-12
1.17499e-12
1.17004e-12
1.16539e-12
1.16105e-12
1.15704e-12
1.15335e-12
1.15001e-12
1.14702e-12
1.14439e-12
1.14212e-12
1.14023e-12
1.1387e-12
1.13756e-12
1.1368e-12
1.13641e-12
1.13641e-12
1.1368e-12
1.13756e-12
1.1387e-12
1.14023e-12
1.14212e-12
1.14439e-12
1.14702e-12
1.15001e-12
1.15335e-12
1.15704e-12
1.16105e-12
1.16539e-12
1.17004e-12
1.17499e-12
1.18023e-12
1.18573e-12
1.19148e-12
1.19746e-12
1.20365e-12
1.21003e-12
1.21657e-12
1.22325e-12
1.23003e-12
1.23689e-12
1.24378e-12
1.25067e-12
1.25752e-12
1.26428e-12
1.2709e-12
1.27733e-12
1.28351e-12
1.28937e-12
1.29484e-12
1.29985e-12
1.30429e-12
1.30809e-12
1.31112e-12
1.31328e-12
1.31443e-12
1.699e-12
1.69768e-12
1.69518e-12
1.69164e-12
1.6872e-12
1.68197e-12
1.67605e-12
1.66956e-12
1.66257e-12
1.65518e-12
1.64747e-12
1.63949e-12
1.63134e-12
1.62305e-12
1.61469e-12
1.60632e-12
1.59797e-12
1.5897e-12
1.58154e-12
1.57353e-12
1.56572e-12
1.55812e-12
1.55077e-12
1.5437e-12
1.53692e-12
1.53048e-12
1.52437e-12
1.51863e-12
1.51327e-12
1.5083e-12
1.50375e-12
1.49961e-12
1.49591e-12
1.49265e-12
1.48985e-12
1.4875e-12
1.48561e-12
1.48419e-12
1.48324e-12
1.48277e-12
1.48277e-12
1.48324e-12
1.48419e-12
1.48561e-12
1.4875e-12
1.48985e-12
1.49265e-12
1.49591e-12
1.49962e-12
1.50375e-12
1.5083e-12
1.51327e-12
1.51863e-12
1.52437e-12
1.53048e-12
1.53692e-12
1.5437e-12
1.55077e-12
1.55812e-12
1.56572e-12
1.57353e-12
1.58154e-12
1.5897e-12
1.59797e-12
1.60632e-12
1.61469e-12
1.62305e-12
1.63134e-12
1.6395e-12
1.64747e-12
1.65518e-12
1.66257e-12
1.66956e-12
1.67605e-12
1.68197e-12
1.6872e-12
1.69164e-12
1.69518e-12
1.69768e-12
1.699e-12
2.08897e-12
2.08751e-12
2.08472e-12
2.08076e-12
2.07577e-12
2.06986e-12
2.06316e-12
2.05578e-12
2.04782e-12
2.03937e-12
2.03053e-12
2.02137e-12
2.01197e-12
2.00241e-12
1.99275e-12
1.98305e-12
1.97337e-12
1.96376e-12
1.95427e-12
1.94494e-12
1.93582e-12
1.92695e-12
1.91835e-12
1.91008e-12
1.90214e-12
1.89458e-12
1.88742e-12
1.88068e-12
1.87438e-12
1.86854e-12
1.86318e-12
1.85832e-12
1.85396e-12
1.85012e-12
1.84681e-12
1.84404e-12
1.84182e-12
1.84014e-12
1.83902e-12
1.83846e-12
1.83846e-12
1.83902e-12
1.84014e-12
1.84182e-12
1.84404e-12
1.84681e-12
1.85012e-12
1.85396e-12
1.85832e-12
1.86318e-12
1.86854e-12
1.87438e-12
1.88068e-12
1.88742e-12
1.89458e-12
1.90214e-12
1.91008e-12
1.91835e-12
1.92695e-12
1.93582e-12
1.94494e-12
1.95427e-12
1.96376e-12
1.97337e-12
1.98305e-12
1.99275e-12
2.00241e-12
2.01197e-12
2.02137e-12
2.03053e-12
2.03937e-12
2.04782e-12
2.05578e-12
2.06316e-12
2.06986e-12
2.07577e-12
2.08076e-12
2.08472e-12
2.08751e-12
2.08898e-12
2.48493e-12
2.48333e-12
2.4803e-12
2.47597e-12
2.47049e-12
2.464e-12
2.45661e-12
2.44845e-12
2.43963e-12
2.43025e-12
2.42041e-12
2.4102e-12
2.39971e-12
2.38901e-12
2.37818e-12
2.36729e-12
2.3564e-12
2.34558e-12
2.33489e-12
2.32436e-12
2.31406e-12
2.30402e-12
2.2943e-12
2.28492e-12
2.27592e-12
2.26734e-12
2.25921e-12
2.25155e-12
2.24439e-12
2.23775e-12
2.23165e-12
2.22611e-12
2.22114e-12
2.21677e-12
2.21299e-12
2.20984e-12
2.2073e-12
2.20539e-12
2.20411e-12
2.20348e-12
2.20348e-12
2.20411e-12
2.20539e-12
2.2073e-12
2.20984e-12
2.213e-12
2.21677e-12
2.22114e-12
2.22611e-12
2.23165e-12
2.23775e-12
2.24439e-12
2.25155e-12
2.25921e-12
2.26734e-12
2.27592e-12
2.28492e-12
2.2943e-12
2.30402e-12
2.31406e-12
2.32436e-12
2.33489e-12
2.34558e-12
2.3564e-12
2.36729e-12
2.37818e-12
2.38901e-12
2.39971e-12
2.4102e-12
2.42041e-12
2.43025e-12
2.43963e-12
2.44845e-12
2.45661e-12
2.464e-12
2.47049e-12
2.47597e-12
2.4803e-12
2.48333e-12
2.48493e-12
2.88736e-12
2.88565e-12
2.88239e-12
2.87773e-12
2.87183e-12
2.86481e-12
2.85682e-12
2.84796e-12
2.83838e-12
2.82816e-12
2.81743e-12
2.80628e-12
2.7948e-12
2.78307e-12
2.77119e-12
2.75923e-12
2.74725e-12
2.73534e-12
2.72354e-12
2.71193e-12
2.70055e-12
2.68945e-12
2.67869e-12
2.6683e-12
2.65833e-12
2.64881e-12
2.63979e-12
2.63128e-12
2.62332e-12
2.61594e-12
2.60916e-12
2.60299e-12
2.59747e-12
2.5926e-12
2.5884e-12
2.58488e-12
2.58205e-12
2.57993e-12
2.5785e-12
2.57779e-12
2.57779e-12
2.5785e-12
2.57993e-12
2.58205e-12
2.58488e-12
2.5884e-12
2.5926e-12
2.59747e-12
2.60299e-12
2.60916e-12
2.61594e-12
2.62332e-12
2.63128e-12
2.63979e-12
2.64882e-12
2.65833e-12
2.6683e-12
2.67869e-12
2.68945e-12
2.70055e-12
2.71193e-12
2.72354e-12
2.73534e-12
2.74725e-12
2.75923e-12
2.77119e-12
2.78307e-12
2.7948e-12
2.80628e-12
2.81743e-12
2.82817e-12
2.83838e-12
2.84796e-12
2.85682e-12
2.86481e-12
2.87183e-12
2.87773e-12
2.88239e-12
2.88565e-12
2.88736e-12
3.2967e-12
3.29489e-12
3.29143e-12
3.28648e-12
3.28019e-12
3.2727e-12
3.26415e-12
3.25468e-12
3.2444e-12
3.23344e-12
3.2219e-12
3.20989e-12
3.19751e-12
3.18486e-12
3.17202e-12
3.15908e-12
3.14611e-12
3.1332e-12
3.1204e-12
3.10779e-12
3.09542e-12
3.08335e-12
3.07163e-12
3.06032e-12
3.04945e-12
3.03907e-12
3.02922e-12
3.01993e-12
3.01124e-12
3.00317e-12
2.99576e-12
2.98901e-12
2.98297e-12
2.97764e-12
2.97304e-12
2.96919e-12
2.9661e-12
2.96377e-12
2.96221e-12
2.96143e-12
2.96143e-12
2.96221e-12
2.96377e-12
2.9661e-12
2.96919e-12
2.97304e-12
2.97764e-12
2.98297e-12
2.98901e-12
2.99576e-12
3.00317e-12
3.01124e-12
3.01993e-12
3.02922e-12
3.03907e-12
3.04945e-12
3.06032e-12
3.07163e-12
3.08335e-12
3.09542e-12
3.10779e-12
3.1204e-12
3.1332e-12
3.14611e-12
3.15908e-12
3.17202e-12
3.18486e-12
3.19751e-12
3.20989e-12
3.2219e-12
3.23344e-12
3.2444e-12
3.25468e-12
3.26415e-12
3.2727e-12
3.28019e-12
3.28648e-12
3.29143e-12
3.29489e-12
3.2967e-12
3.71336e-12
3.71145e-12
3.70781e-12
3.70259e-12
3.69594e-12
3.68803e-12
3.67898e-12
3.66894e-12
3.65803e-12
3.64638e-12
3.6341e-12
3.62131e-12
3.60812e-12
3.59461e-12
3.5809e-12
3.56706e-12
3.55318e-12
3.53935e-12
3.52563e-12
3.5121e-12
3.49882e-12
3.48585e-12
3.47326e-12
3.46108e-12
3.44939e-12
3.43821e-12
3.4276e-12
3.41758e-12
3.40821e-12
3.39951e-12
3.3915e-12
3.38422e-12
3.3777e-12
3.37194e-12
3.36697e-12
3.36281e-12
3.35947e-12
3.35695e-12
3.35527e-12
3.35442e-12
3.35442e-12
3.35527e-12
3.35695e-12
3.35947e-12
3.36281e-12
3.36697e-12
3.37194e-12
3.3777e-12
3.38422e-12
3.3915e-12
3.39951e-12
3.40821e-12
3.41758e-12
3.4276e-12
3.43821e-12
3.44939e-12
3.46108e-12
3.47326e-12
3.48585e-12
3.49882e-12
3.5121e-12
3.52563e-12
3.53935e-12
3.55319e-12
3.56706e-12
3.5809e-12
3.59461e-12
3.60812e-12
3.62131e-12
3.6341e-12
3.64638e-12
3.65803e-12
3.66894e-12
3.67898e-12
3.68803e-12
3.69594e-12
3.70259e-12
3.70781e-12
3.71145e-12
3.71336e-12
4.1377e-12
4.1357e-12
4.13189e-12
4.12642e-12
4.11945e-12
4.11114e-12
4.10163e-12
4.09106e-12
4.07957e-12
4.06728e-12
4.05433e-12
4.04082e-12
4.02687e-12
4.01258e-12
3.99806e-12
3.98339e-12
3.96867e-12
3.95399e-12
3.93941e-12
3.92503e-12
3.91091e-12
3.89711e-12
3.8837e-12
3.87073e-12
3.85826e-12
3.84634e-12
3.83502e-12
3.82433e-12
3.81432e-12
3.80503e-12
3.79647e-12
3.7887e-12
3.78172e-12
3.77556e-12
3.77025e-12
3.7658e-12
3.76222e-12
3.75953e-12
3.75773e-12
3.75683e-12
3.75683e-12
3.75773e-12
3.75953e-12
3.76222e-12
3.7658e-12
3.77025e-12
3.77557e-12
3.78172e-12
3.7887e-12
3.79648e-12
3.80503e-12
3.81432e-12
3.82433e-12
3.83502e-12
3.84634e-12
3.85826e-12
3.87073e-12
3.8837e-12
3.89711e-12
3.91091e-12
3.92503e-12
3.93941e-12
3.95399e-12
3.96867e-12
3.98339e-12
3.99806e-12
4.01258e-12
4.02687e-12
4.04082e-12
4.05433e-12
4.06728e-12
4.07957e-12
4.09106e-12
4.10163e-12
4.11114e-12
4.11945e-12
4.12642e-12
4.13189e-12
4.1357e-12
4.1377e-12
4.57006e-12
4.56799e-12
4.56401e-12
4.55831e-12
4.55103e-12
4.54235e-12
4.53241e-12
4.52135e-12
4.50932e-12
4.49644e-12
4.48285e-12
4.46867e-12
4.45402e-12
4.439e-12
4.42372e-12
4.40828e-12
4.39278e-12
4.3773e-12
4.36194e-12
4.34676e-12
4.33185e-12
4.31727e-12
4.3031e-12
4.28939e-12
4.2762e-12
4.26359e-12
4.2516e-12
4.24029e-12
4.22968e-12
4.21983e-12
4.21077e-12
4.20252e-12
4.19512e-12
4.1886e-12
4.18296e-12
4.17824e-12
4.17444e-12
4.17158e-12
4.16967e-12
4.16871e-12
4.16871e-12
4.16967e-12
4.17158e-12
4.17444e-12
4.17824e-12
4.18296e-12
4.1886e-12
4.19512e-12
4.20252e-12
4.21077e-12
4.21983e-12
4.22968e-12
4.24029e-12
4.2516e-12
4.26359e-12
4.2762e-12
4.28939e-12
4.3031e-12
4.31727e-12
4.33185e-12
4.34676e-12
4.36194e-12
4.3773e-12
4.39278e-12
4.40828e-12
4.42372e-12
4.439e-12
4.45402e-12
4.46867e-12
4.48285e-12
4.49644e-12
4.50932e-12
4.52135e-12
4.53241e-12
4.54235e-12
4.55103e-12
4.55831e-12
4.56401e-12
4.56799e-12
4.57006e-12
5.01077e-12
5.00862e-12
5.00449e-12
4.99856e-12
4.991e-12
4.98197e-12
4.97162e-12
4.9601e-12
4.94756e-12
4.93413e-12
4.91994e-12
4.90514e-12
4.88982e-12
4.87411e-12
4.85813e-12
4.84197e-12
4.82573e-12
4.80951e-12
4.79339e-12
4.77747e-12
4.76182e-12
4.74652e-12
4.73163e-12
4.71722e-12
4.70336e-12
4.69009e-12
4.67748e-12
4.66558e-12
4.65441e-12
4.64404e-12
4.6345e-12
4.62581e-12
4.61801e-12
4.61113e-12
4.6052e-12
4.60022e-12
4.59621e-12
4.5932e-12
4.59119e-12
4.59018e-12
4.59018e-12
4.59119e-12
4.5932e-12
4.59621e-12
4.60022e-12
4.6052e-12
4.61114e-12
4.61801e-12
4.62581e-12
4.6345e-12
4.64404e-12
4.65441e-12
4.66558e-12
4.67748e-12
4.69009e-12
4.70336e-12
4.71722e-12
4.73163e-12
4.74652e-12
4.76182e-12
4.77747e-12
4.7934e-12
4.80951e-12
4.82573e-12
4.84197e-12
4.85813e-12
4.87411e-12
4.88982e-12
4.90514e-12
4.91995e-12
4.93413e-12
4.94756e-12
4.9601e-12
4.97162e-12
4.98197e-12
4.991e-12
4.99856e-12
5.00449e-12
5.00862e-12
5.01077e-12
5.46013e-12
5.4579e-12
5.45363e-12
5.44749e-12
5.43966e-12
5.43029e-12
5.41955e-12
5.40759e-12
5.39457e-12
5.38061e-12
5.36587e-12
5.35046e-12
5.33452e-12
5.31816e-12
5.30151e-12
5.28466e-12
5.26773e-12
5.2508e-12
5.23399e-12
5.21736e-12
5.20101e-12
5.18502e-12
5.16945e-12
5.15439e-12
5.13988e-12
5.126e-12
5.1128e-12
5.10034e-12
5.08865e-12
5.07778e-12
5.06778e-12
5.05868e-12
5.05051e-12
5.0433e-12
5.03707e-12
5.03185e-12
5.02765e-12
5.02449e-12
5.02238e-12
5.02132e-12
5.02132e-12
5.02238e-12
5.02449e-12
5.02765e-12
5.03185e-12
5.03707e-12
5.0433e-12
5.05051e-12
5.05868e-12
5.06778e-12
5.07778e-12
5.08865e-12
5.10034e-12
5.1128e-12
5.126e-12
5.13988e-12
5.15439e-12
5.16945e-12
5.18502e-12
5.20101e-12
5.21736e-12
5.23399e-12
5.2508e-12
5.26773e-12
5.28466e-12
5.30151e-12
5.31816e-12
5.33452e-12
5.35046e-12
5.36587e-12
5.38061e-12
5.39457e-12
5.40759e-12
5.41955e-12
5.43029e-12
5.43966e-12
5.44749e-12
5.45363e-12
5.4579e-12
5.46013e-12
5.91843e-12
5.91613e-12
5.91172e-12
5.90538e-12
5.89728e-12
5.88759e-12
5.87648e-12
5.86411e-12
5.85062e-12
5.83616e-12
5.82087e-12
5.8049e-12
5.78836e-12
5.77138e-12
5.75409e-12
5.73659e-12
5.71899e-12
5.7014e-12
5.68391e-12
5.66662e-12
5.6496e-12
5.63295e-12
5.61675e-12
5.60105e-12
5.58594e-12
5.57148e-12
5.55772e-12
5.54472e-12
5.53253e-12
5.52119e-12
5.51076e-12
5.50126e-12
5.49273e-12
5.48521e-12
5.47871e-12
5.47325e-12
5.46887e-12
5.46557e-12
5.46337e-12
5.46226e-12
5.46226e-12
5.46337e-12
5.46557e-12
5.46887e-12
5.47325e-12
5.47871e-12
5.48521e-12
5.49273e-12
5.50126e-12
5.51076e-12
5.52119e-12
5.53253e-12
5.54472e-12
5.55772e-12
5.57148e-12
5.58594e-12
5.60105e-12
5.61675e-12
5.63296e-12
5.6496e-12
5.66662e-12
5.68391e-12
5.7014e-12
5.71899e-12
5.73659e-12
5.75409e-12
5.77138e-12
5.78836e-12
5.8049e-12
5.82087e-12
5.83616e-12
5.85062e-12
5.86411e-12
5.87648e-12
5.88759e-12
5.89728e-12
5.90538e-12
5.91172e-12
5.91613e-12
5.91843e-12
6.38596e-12
6.38359e-12
6.37905e-12
6.37251e-12
6.36415e-12
6.35416e-12
6.34269e-12
6.3299e-12
6.31597e-12
6.30102e-12
6.28522e-12
6.26869e-12
6.25158e-12
6.23401e-12
6.21611e-12
6.19798e-12
6.17975e-12
6.16152e-12
6.14338e-12
6.12545e-12
6.1078e-12
6.09052e-12
6.0737e-12
6.0574e-12
6.04171e-12
6.02669e-12
6.01239e-12
5.99888e-12
5.98621e-12
5.97443e-12
5.96358e-12
5.9537e-12
5.94484e-12
5.93701e-12
5.93025e-12
5.92458e-12
5.92002e-12
5.91658e-12
5.91429e-12
5.91314e-12
5.91314e-12
5.91429e-12
5.91658e-12
5.92002e-12
5.92458e-12
5.93025e-12
5.93701e-12
5.94484e-12
5.9537e-12
5.96358e-12
5.97443e-12
5.98621e-12
5.99888e-12
6.01239e-12
6.02669e-12
6.04171e-12
6.0574e-12
6.0737e-12
6.09052e-12
6.1078e-12
6.12545e-12
6.14338e-12
6.16152e-12
6.17975e-12
6.19798e-12
6.21611e-12
6.23401e-12
6.25158e-12
6.2687e-12
6.28522e-12
6.30102e-12
6.31597e-12
6.3299e-12
6.34269e-12
6.35416e-12
6.36415e-12
6.37251e-12
6.37905e-12
6.38359e-12
6.38596e-12
6.863e-12
6.86056e-12
6.85588e-12
6.84915e-12
6.84055e-12
6.83025e-12
6.81843e-12
6.80525e-12
6.79088e-12
6.77546e-12
6.75916e-12
6.7421e-12
6.72444e-12
6.70629e-12
6.68779e-12
6.66906e-12
6.65022e-12
6.63136e-12
6.61261e-12
6.59406e-12
6.57579e-12
6.55791e-12
6.5405e-12
6.52363e-12
6.50737e-12
6.49181e-12
6.477e-12
6.463e-12
6.44987e-12
6.43766e-12
6.42641e-12
6.41617e-12
6.40697e-12
6.39885e-12
6.39184e-12
6.38596e-12
6.38123e-12
6.37767e-12
6.37529e-12
6.37409e-12
6.37409e-12
6.37529e-12
6.37767e-12
6.38123e-12
6.38596e-12
6.39184e-12
6.39885e-12
6.40697e-12
6.41617e-12
6.42641e-12
6.43766e-12
6.44987e-12
6.463e-12
6.477e-12
6.49181e-12
6.50737e-12
6.52363e-12
6.5405e-12
6.55791e-12
6.57579e-12
6.59406e-12
6.61261e-12
6.63137e-12
6.65022e-12
6.66906e-12
6.68779e-12
6.70629e-12
6.72444e-12
6.7421e-12
6.75916e-12
6.77546e-12
6.79088e-12
6.80525e-12
6.81843e-12
6.83025e-12
6.84055e-12
6.84915e-12
6.85588e-12
6.86056e-12
6.863e-12
7.34981e-12
7.3473e-12
7.3425e-12
7.33557e-12
7.32672e-12
7.31613e-12
7.30397e-12
7.29041e-12
7.27561e-12
7.25974e-12
7.24294e-12
7.22537e-12
7.20716e-12
7.18845e-12
7.16938e-12
7.15006e-12
7.13062e-12
7.11117e-12
7.09181e-12
7.07266e-12
7.0538e-12
7.03533e-12
7.01734e-12
6.99991e-12
6.98312e-12
6.96703e-12
6.95172e-12
6.93725e-12
6.92367e-12
6.91104e-12
6.89941e-12
6.88882e-12
6.8793e-12
6.8709e-12
6.86365e-12
6.85756e-12
6.85267e-12
6.84898e-12
6.84652e-12
6.84529e-12
6.84529e-12
6.84652e-12
6.84898e-12
6.85267e-12
6.85756e-12
6.86365e-12
6.8709e-12
6.8793e-12
6.88882e-12
6.89941e-12
6.91104e-12
6.92367e-12
6.93725e-12
6.95172e-12
6.96703e-12
6.98312e-12
6.99991e-12
7.01734e-12
7.03533e-12
7.0538e-12
7.07266e-12
7.09181e-12
7.11117e-12
7.13062e-12
7.15006e-12
7.16938e-12
7.18845e-12
7.20716e-12
7.22537e-12
7.24294e-12
7.25974e-12
7.27561e-12
7.29041e-12
7.30397e-12
7.31613e-12
7.32673e-12
7.33557e-12
7.3425e-12
7.3473e-12
7.34981e-12
7.84666e-12
7.84409e-12
7.83915e-12
7.83204e-12
7.82295e-12
7.81207e-12
7.79957e-12
7.78563e-12
7.77041e-12
7.75409e-12
7.73681e-12
7.71873e-12
7.69999e-12
7.68074e-12
7.6611e-12
7.64121e-12
7.62119e-12
7.60115e-12
7.5812e-12
7.56146e-12
7.54202e-12
7.52299e-12
7.50444e-12
7.48646e-12
7.46914e-12
7.45255e-12
7.43675e-12
7.42182e-12
7.40781e-12
7.39477e-12
7.38277e-12
7.37183e-12
7.36201e-12
7.35334e-12
7.34585e-12
7.33956e-12
7.33451e-12
7.3307e-12
7.32816e-12
7.32689e-12
7.32689e-12
7.32816e-12
7.3307e-12
7.33451e-12
7.33956e-12
7.34585e-12
7.35334e-12
7.36201e-12
7.37183e-12
7.38277e-12
7.39477e-12
7.40781e-12
7.42182e-12
7.43675e-12
7.45255e-12
7.46914e-12
7.48646e-12
7.50444e-12
7.52299e-12
7.54202e-12
7.56146e-12
7.5812e-12
7.60115e-12
7.62119e-12
7.64121e-12
7.6611e-12
7.68074e-12
7.69999e-12
7.71873e-12
7.73681e-12
7.75409e-12
7.77041e-12
7.78563e-12
7.79957e-12
7.81207e-12
7.82296e-12
7.83204e-12
7.83915e-12
7.84409e-12
7.84666e-12
8.35382e-12
8.35119e-12
8.34612e-12
8.33883e-12
8.3295e-12
8.31832e-12
8.30549e-12
8.29117e-12
8.27555e-12
8.25878e-12
8.24102e-12
8.22244e-12
8.20319e-12
8.18339e-12
8.1632e-12
8.14274e-12
8.12214e-12
8.10153e-12
8.08101e-12
8.06069e-12
8.04069e-12
8.02109e-12
8.00199e-12
7.98349e-12
7.96565e-12
7.94856e-12
7.93229e-12
7.9169e-12
7.90247e-12
7.88904e-12
7.87666e-12
7.8654e-12
7.85527e-12
7.84634e-12
7.83861e-12
7.83214e-12
7.82693e-12
7.823e-12
7.82038e-12
7.81907e-12
7.81907e-12
7.82038e-12
7.823e-12
7.82693e-12
7.83214e-12
7.83861e-12
7.84634e-12
7.85527e-12
7.8654e-12
7.87666e-12
7.88904e-12
7.90247e-12
7.9169e-12
7.93229e-12
7.94856e-12
7.96565e-12
7.98349e-12
8.00199e-12
8.02109e-12
8.04069e-12
8.06069e-12
8.08101e-12
8.10153e-12
8.12215e-12
8.14274e-12
8.1632e-12
8.18339e-12
8.20319e-12
8.22244e-12
8.24103e-12
8.25878e-12
8.27555e-12
8.29117e-12
8.30549e-12
8.31832e-12
8.3295e-12
8.33883e-12
8.34612e-12
8.35119e-12
8.35382e-12
8.87156e-12
8.86885e-12
8.86366e-12
8.85618e-12
8.84661e-12
8.83515e-12
8.82199e-12
8.8073e-12
8.79126e-12
8.77405e-12
8.75583e-12
8.73675e-12
8.71698e-12
8.69665e-12
8.67591e-12
8.65489e-12
8.63373e-12
8.61255e-12
8.59146e-12
8.57058e-12
8.55001e-12
8.52987e-12
8.51023e-12
8.4912e-12
8.47285e-12
8.45527e-12
8.43853e-12
8.42271e-12
8.40785e-12
8.39404e-12
8.3813e-12
8.36971e-12
8.35929e-12
8.35009e-12
8.34214e-12
8.33548e-12
8.33011e-12
8.32608e-12
8.32338e-12
8.32202e-12
8.32202e-12
8.32338e-12
8.32608e-12
8.33011e-12
8.33548e-12
8.34214e-12
8.35009e-12
8.35929e-12
8.36971e-12
8.3813e-12
8.39404e-12
8.40785e-12
8.42271e-12
8.43853e-12
8.45527e-12
8.47285e-12
8.4912e-12
8.51023e-12
8.52987e-12
8.55001e-12
8.57058e-12
8.59146e-12
8.61255e-12
8.63373e-12
8.6549e-12
8.67591e-12
8.69665e-12
8.71698e-12
8.73675e-12
8.75583e-12
8.77405e-12
8.79126e-12
8.8073e-12
8.82199e-12
8.83515e-12
8.84661e-12
8.85618e-12
8.86366e-12
8.86885e-12
8.87156e-12
9.40012e-12
9.39735e-12
9.39203e-12
9.38437e-12
9.37456e-12
9.36282e-12
9.34932e-12
9.33426e-12
9.31782e-12
9.30017e-12
9.28148e-12
9.26191e-12
9.24162e-12
9.22076e-12
9.19948e-12
9.17791e-12
9.15619e-12
9.13444e-12
9.11279e-12
9.09135e-12
9.07023e-12
9.04953e-12
9.02936e-12
9.00981e-12
8.99096e-12
8.9729e-12
8.9557e-12
8.93944e-12
8.92418e-12
8.90997e-12
8.89689e-12
8.88497e-12
8.87426e-12
8.8648e-12
8.85663e-12
8.84978e-12
8.84427e-12
8.84011e-12
8.83734e-12
8.83595e-12
8.83595e-12
8.83734e-12
8.84011e-12
8.84427e-12
8.84978e-12
8.85663e-12
8.8648e-12
8.87426e-12
8.88497e-12
8.89689e-12
8.90997e-12
8.92418e-12
8.93944e-12
8.9557e-12
8.9729e-12
8.99096e-12
9.00981e-12
9.02936e-12
9.04953e-12
9.07023e-12
9.09135e-12
9.11279e-12
9.13444e-12
9.15619e-12
9.17791e-12
9.19948e-12
9.22076e-12
9.24162e-12
9.26191e-12
9.28148e-12
9.30017e-12
9.31782e-12
9.33426e-12
9.34932e-12
9.36282e-12
9.37456e-12
9.38437e-12
9.39203e-12
9.39735e-12
9.40012e-12
9.93979e-12
9.93695e-12
9.9315e-12
9.92365e-12
9.91361e-12
9.90157e-12
9.88775e-12
9.87232e-12
9.85547e-12
9.83738e-12
9.81822e-12
9.79816e-12
9.77736e-12
9.75597e-12
9.73415e-12
9.71203e-12
9.68975e-12
9.66744e-12
9.64523e-12
9.62323e-12
9.60156e-12
9.58033e-12
9.55963e-12
9.53956e-12
9.52021e-12
9.50167e-12
9.48402e-12
9.46732e-12
9.45165e-12
9.43707e-12
9.42363e-12
9.41139e-12
9.40039e-12
9.39068e-12
9.38229e-12
9.37525e-12
9.36959e-12
9.36533e-12
9.36247e-12
9.36105e-12
9.36105e-12
9.36247e-12
9.36533e-12
9.36959e-12
9.37525e-12
9.38229e-12
9.39068e-12
9.40039e-12
9.41139e-12
9.42363e-12
9.43707e-12
9.45165e-12
9.46732e-12
9.48402e-12
9.50167e-12
9.52021e-12
9.53956e-12
9.55963e-12
9.58033e-12
9.60156e-12
9.62323e-12
9.64523e-12
9.66744e-12
9.68975e-12
9.71203e-12
9.73415e-12
9.75597e-12
9.77736e-12
9.79816e-12
9.81822e-12
9.83738e-12
9.85547e-12
9.87232e-12
9.88775e-12
9.90158e-12
9.91361e-12
9.92365e-12
9.9315e-12
9.93695e-12
9.93979e-12
1.04908e-11
1.04879e-11
1.04823e-11
1.04743e-11
1.0464e-11
1.04517e-11
1.04375e-11
1.04217e-11
1.04045e-11
1.03859e-11
1.03663e-11
1.03458e-11
1.03245e-11
1.03025e-11
1.02802e-11
1.02575e-11
1.02347e-11
1.02118e-11
1.0189e-11
1.01665e-11
1.01443e-11
1.01225e-11
1.01013e-11
1.00807e-11
1.00608e-11
1.00418e-11
1.00237e-11
1.00066e-11
9.9905e-12
9.97554e-12
9.96175e-12
9.94919e-12
9.93791e-12
9.92794e-12
9.91933e-12
9.91211e-12
9.9063e-12
9.90192e-12
9.899e-12
9.89753e-12
9.89753e-12
9.899e-12
9.90192e-12
9.9063e-12
9.91211e-12
9.91933e-12
9.92794e-12
9.93791e-12
9.94919e-12
9.96175e-12
9.97554e-12
9.9905e-12
1.00066e-11
1.00237e-11
1.00418e-11
1.00608e-11
1.00807e-11
1.01013e-11
1.01225e-11
1.01443e-11
1.01665e-11
1.0189e-11
1.02118e-11
1.02347e-11
1.02575e-11
1.02802e-11
1.03025e-11
1.03245e-11
1.03458e-11
1.03663e-11
1.03859e-11
1.04045e-11
1.04217e-11
1.04375e-11
1.04517e-11
1.0464e-11
1.04743e-11
1.04823e-11
1.04879e-11
1.04908e-11
1.10535e-11
1.10505e-11
1.10448e-11
1.10366e-11
1.1026e-11
1.10134e-11
1.09989e-11
1.09828e-11
1.09651e-11
1.09461e-11
1.0926e-11
1.0905e-11
1.08832e-11
1.08607e-11
1.08378e-11
1.08146e-11
1.07912e-11
1.07678e-11
1.07444e-11
1.07213e-11
1.06985e-11
1.06762e-11
1.06545e-11
1.06334e-11
1.0613e-11
1.05936e-11
1.0575e-11
1.05574e-11
1.0541e-11
1.05256e-11
1.05115e-11
1.04986e-11
1.0487e-11
1.04768e-11
1.0468e-11
1.04606e-11
1.04546e-11
1.04501e-11
1.04471e-11
1.04456e-11
1.04456e-11
1.04471e-11
1.04501e-11
1.04546e-11
1.04606e-11
1.0468e-11
1.04768e-11
1.0487e-11
1.04986e-11
1.05115e-11
1.05256e-11
1.0541e-11
1.05574e-11
1.0575e-11
1.05936e-11
1.0613e-11
1.06334e-11
1.06545e-11
1.06762e-11
1.06985e-11
1.07213e-11
1.07444e-11
1.07678e-11
1.07912e-11
1.08146e-11
1.08378e-11
1.08607e-11
1.08832e-11
1.0905e-11
1.0926e-11
1.09461e-11
1.09651e-11
1.09828e-11
1.09989e-11
1.10134e-11
1.1026e-11
1.10366e-11
1.10448e-11
1.10505e-11
1.10535e-11
1.1628e-11
1.1625e-11
1.16191e-11
1.16107e-11
1.16e-11
1.15871e-11
1.15722e-11
1.15557e-11
1.15376e-11
1.15182e-11
1.14976e-11
1.14761e-11
1.14537e-11
1.14307e-11
1.14073e-11
1.13835e-11
1.13596e-11
1.13356e-11
1.13117e-11
1.1288e-11
1.12647e-11
1.12418e-11
1.12195e-11
1.11979e-11
1.11771e-11
1.11571e-11
1.11381e-11
1.11201e-11
1.11032e-11
1.10875e-11
1.1073e-11
1.10599e-11
1.1048e-11
1.10375e-11
1.10285e-11
1.10209e-11
1.10148e-11
1.10102e-11
1.10071e-11
1.10056e-11
1.10056e-11
1.10071e-11
1.10102e-11
1.10148e-11
1.10209e-11
1.10285e-11
1.10375e-11
1.1048e-11
1.10599e-11
1.1073e-11
1.10875e-11
1.11032e-11
1.11201e-11
1.11381e-11
1.11571e-11
1.11771e-11
1.11979e-11
1.12195e-11
1.12418e-11
1.12647e-11
1.1288e-11
1.13117e-11
1.13356e-11
1.13596e-11
1.13835e-11
1.14073e-11
1.14307e-11
1.14537e-11
1.14761e-11
1.14976e-11
1.15182e-11
1.15376e-11
1.15557e-11
1.15722e-11
1.15871e-11
1.16e-11
1.16107e-11
1.16191e-11
1.1625e-11
1.1628e-11
1.22147e-11
1.22116e-11
1.22057e-11
1.21971e-11
1.2186e-11
1.21728e-11
1.21577e-11
1.21407e-11
1.21222e-11
1.21024e-11
1.20813e-11
1.20593e-11
1.20364e-11
1.20129e-11
1.19889e-11
1.19646e-11
1.194e-11
1.19155e-11
1.1891e-11
1.18668e-11
1.18429e-11
1.18195e-11
1.17967e-11
1.17746e-11
1.17533e-11
1.17328e-11
1.17133e-11
1.16949e-11
1.16776e-11
1.16615e-11
1.16467e-11
1.16332e-11
1.1621e-11
1.16103e-11
1.1601e-11
1.15933e-11
1.1587e-11
1.15823e-11
1.15792e-11
1.15776e-11
1.15776e-11
1.15792e-11
1.15823e-11
1.1587e-11
1.15933e-11
1.1601e-11
1.16103e-11
1.1621e-11
1.16332e-11
1.16467e-11
1.16615e-11
1.16776e-11
1.16949e-11
1.17133e-11
1.17328e-11
1.17533e-11
1.17746e-11
1.17967e-11
1.18195e-11
1.18429e-11
1.18668e-11
1.1891e-11
1.19155e-11
1.194e-11
1.19646e-11
1.19889e-11
1.20129e-11
1.20364e-11
1.20593e-11
1.20813e-11
1.21024e-11
1.21222e-11
1.21407e-11
1.21577e-11
1.21728e-11
1.2186e-11
1.21971e-11
1.22057e-11
1.22116e-11
1.22147e-11
1.28139e-11
1.28107e-11
1.28046e-11
1.27958e-11
1.27846e-11
1.27711e-11
1.27555e-11
1.27382e-11
1.27193e-11
1.2699e-11
1.26775e-11
1.26549e-11
1.26315e-11
1.26075e-11
1.25829e-11
1.2558e-11
1.25329e-11
1.25078e-11
1.24828e-11
1.2458e-11
1.24335e-11
1.24096e-11
1.23862e-11
1.23636e-11
1.23418e-11
1.23208e-11
1.23009e-11
1.2282e-11
1.22643e-11
1.22479e-11
1.22327e-11
1.22188e-11
1.22064e-11
1.21954e-11
1.21859e-11
1.2178e-11
1.21716e-11
1.21668e-11
1.21635e-11
1.21619e-11
1.21619e-11
1.21635e-11
1.21668e-11
1.21716e-11
1.2178e-11
1.21859e-11
1.21954e-11
1.22064e-11
1.22188e-11
1.22327e-11
1.22479e-11
1.22643e-11
1.2282e-11
1.23009e-11
1.23208e-11
1.23418e-11
1.23636e-11
1.23862e-11
1.24096e-11
1.24335e-11
1.2458e-11
1.24828e-11
1.25078e-11
1.25329e-11
1.2558e-11
1.25829e-11
1.26075e-11
1.26315e-11
1.26549e-11
1.26775e-11
1.2699e-11
1.27193e-11
1.27382e-11
1.27555e-11
1.27711e-11
1.27846e-11
1.27958e-11
1.28046e-11
1.28107e-11
1.28139e-11
1.34258e-11
1.34226e-11
1.34163e-11
1.34073e-11
1.33958e-11
1.3382e-11
1.33661e-11
1.33484e-11
1.33291e-11
1.33083e-11
1.32863e-11
1.32632e-11
1.32393e-11
1.32147e-11
1.31896e-11
1.31641e-11
1.31384e-11
1.31127e-11
1.30871e-11
1.30618e-11
1.30368e-11
1.30123e-11
1.29884e-11
1.29652e-11
1.29429e-11
1.29214e-11
1.2901e-11
1.28817e-11
1.28636e-11
1.28468e-11
1.28312e-11
1.28171e-11
1.28044e-11
1.27931e-11
1.27834e-11
1.27753e-11
1.27687e-11
1.27638e-11
1.27605e-11
1.27588e-11
1.27588e-11
1.27605e-11
1.27638e-11
1.27687e-11
1.27753e-11
1.27834e-11
1.27931e-11
1.28044e-11
1.28171e-11
1.28312e-11
1.28468e-11
1.28636e-11
1.28817e-11
1.2901e-11
1.29214e-11
1.29429e-11
1.29652e-11
1.29884e-11
1.30123e-11
1.30368e-11
1.30618e-11
1.30871e-11
1.31127e-11
1.31384e-11
1.31641e-11
1.31896e-11
1.32147e-11
1.32393e-11
1.32632e-11
1.32863e-11
1.33083e-11
1.33291e-11
1.33484e-11
1.33661e-11
1.3382e-11
1.33958e-11
1.34073e-11
1.34163e-11
1.34226e-11
1.34258e-11
1.40507e-11
1.40474e-11
1.4041e-11
1.40318e-11
1.402e-11
1.40059e-11
1.39897e-11
1.39716e-11
1.39518e-11
1.39306e-11
1.39081e-11
1.38845e-11
1.386e-11
1.38348e-11
1.38092e-11
1.37831e-11
1.37569e-11
1.37306e-11
1.37044e-11
1.36785e-11
1.36529e-11
1.36278e-11
1.36034e-11
1.35797e-11
1.35568e-11
1.35349e-11
1.35141e-11
1.34943e-11
1.34758e-11
1.34585e-11
1.34426e-11
1.34282e-11
1.34151e-11
1.34036e-11
1.33937e-11
1.33854e-11
1.33787e-11
1.33736e-11
1.33702e-11
1.33685e-11
1.33685e-11
1.33702e-11
1.33736e-11
1.33787e-11
1.33854e-11
1.33937e-11
1.34036e-11
1.34151e-11
1.34282e-11
1.34426e-11
1.34585e-11
1.34758e-11
1.34943e-11
1.35141e-11
1.35349e-11
1.35568e-11
1.35797e-11
1.36034e-11
1.36278e-11
1.36529e-11
1.36785e-11
1.37044e-11
1.37306e-11
1.37569e-11
1.37831e-11
1.38092e-11
1.38348e-11
1.386e-11
1.38845e-11
1.39081e-11
1.39306e-11
1.39518e-11
1.39716e-11
1.39897e-11
1.40059e-11
1.402e-11
1.40318e-11
1.4041e-11
1.40474e-11
1.40507e-11
1.46889e-11
1.46855e-11
1.4679e-11
1.46696e-11
1.46576e-11
1.46431e-11
1.46265e-11
1.4608e-11
1.45878e-11
1.45661e-11
1.45431e-11
1.4519e-11
1.4494e-11
1.44682e-11
1.4442e-11
1.44153e-11
1.43885e-11
1.43616e-11
1.43349e-11
1.43083e-11
1.42822e-11
1.42566e-11
1.42316e-11
1.42073e-11
1.4184e-11
1.41615e-11
1.41402e-11
1.412e-11
1.41011e-11
1.40834e-11
1.40672e-11
1.40523e-11
1.4039e-11
1.40273e-11
1.40171e-11
1.40086e-11
1.40017e-11
1.39966e-11
1.39931e-11
1.39914e-11
1.39914e-11
1.39931e-11
1.39966e-11
1.40017e-11
1.40086e-11
1.40171e-11
1.40273e-11
1.4039e-11
1.40523e-11
1.40672e-11
1.40834e-11
1.41011e-11
1.412e-11
1.41402e-11
1.41615e-11
1.4184e-11
1.42073e-11
1.42316e-11
1.42566e-11
1.42822e-11
1.43083e-11
1.43349e-11
1.43616e-11
1.43885e-11
1.44153e-11
1.4442e-11
1.44682e-11
1.4494e-11
1.4519e-11
1.45431e-11