/*--------------------------------*- C++ -*----------------------------------*\
  =========                 |
  \\      /  F ield         | OpenFOAM: The Open Source CFD Toolbox
   \\    /   O peration     | Website:  https://openfoam.org
    \\  /    A nd           | Version:  11
     \\/     M anipulation  |
\*---------------------------------------------------------------------------*/
FoamFile
{
    format      ascii;
    class       volScalarField;
    location    "100";
    object      C;
}
// * * * * * * * * * * * * * * * * * * * * * * * * * * * * * * * * * * * * * //

dimensions      [0 0 0 1 0 0 0];

internalField   nonuniform List<scalar> 
440320
(
-1.34685e-285
-1.19655e-285
-9.82657e-286
-7.64719e-286
-5.72153e-286
-4.15728e-286
-2.95554e-286
-2.06692e-286
-1.42704e-286
-9.74907e-287
-6.59917e-287
-4.42937e-287
-2.94912e-287
-1.94812e-287
-1.27682e-287
-8.30245e-288
-5.35546e-288
-3.42631e-288
-2.17369e-288
-1.3671e-288
-8.52119e-289
-5.26203e-289
-3.21808e-289
-1.94828e-289
-1.16714e-289
-6.91507e-290
-4.04993e-290
-2.3433e-290
-1.33868e-290
-7.54582e-291
-4.19392e-291
-2.29664e-291
-1.23818e-291
-6.56645e-292
-3.42248e-292
-1.75149e-292
-8.79212e-293
-4.32441e-293
-2.08143e-293
-9.78678e-294
-4.48166e-294
-2.01441e-294
-8.90551e-295
-3.87773e-295
-1.66472e-295
-7.05133e-296
-2.9486e-296
-1.21777e-296
-4.96911e-297
-2.0039e-297
-7.98841e-298
-3.1486e-298
-1.22723e-298
-4.73162e-299
-1.80597e-299
-6.84583e-300
-2.61335e-300
-1.0637e-300
-5.52009e-301
-4.66478e-301
-5.98494e-301
-9.03432e-301
-1.41499e-300
-2.22093e-300
-3.4657e-300
-5.36793e-300
-8.25016e-300
-1.25819e-299
-1.9039e-299
-2.85816e-299
-4.25512e-299
-6.27782e-299
-9.1666e-299
-1.32174e-298
-1.87532e-298
-2.60429e-298
-3.51369e-298
-4.5596e-298
-5.60894e-298
-6.37811e-298
-1.11153e-284
-8.37551e-285
-6.16182e-285
-4.49813e-285
-3.2594e-285
-2.34136e-285
-1.66541e-285
-1.17228e-285
-8.16482e-286
-5.62808e-286
-3.84082e-286
-2.59597e-286
-1.73833e-286
-1.15354e-286
-7.58713e-287
-4.9465e-287
-3.19664e-287
-2.04753e-287
-1.29971e-287
-8.17426e-288
-5.09243e-288
-3.14151e-288
-1.91836e-288
-1.15911e-288
-6.9267e-289
-4.09179e-289
-2.38809e-289
-1.37619e-289
-7.8257e-290
-4.38812e-290
-2.42451e-290
-1.3189e-290
-7.0578e-291
-3.71191e-291
-1.91677e-291
-9.70805e-292
-4.8172e-292
-2.33898e-292
-1.10969e-292
-5.13315e-293
-2.30357e-293
-1.01736e-293
-4.42661e-294
-1.8991e-294
-8.03864e-295
-3.3589e-295
-1.38601e-295
-5.64978e-296
-2.2757e-296
-9.05967e-297
-3.56537e-297
-1.38728e-297
-5.33784e-298
-2.03164e-298
-7.65751e-299
-2.8716e-299
-1.09376e-299
-4.59488e-300
-2.66564e-300
-2.60059e-300
-3.58665e-300
-5.52841e-300
-8.69815e-300
-1.36534e-299
-2.12739e-299
-3.2869e-299
-5.03447e-299
-7.64357e-299
-1.15011e-298
-1.71465e-298
-2.53199e-298
-3.70208e-298
-5.35779e-298
-7.67365e-298
-1.08783e-297
-1.52738e-297
-2.12655e-297
-2.93963e-297
-4.03196e-297
-5.39034e-297
-5.9613e-284
-4.35247e-284
-2.99495e-284
-2.05565e-284
-1.41935e-284
-9.84673e-285
-6.84299e-285
-4.7498e-285
-3.28512e-285
-2.25998e-285
-1.5445e-285
-1.04767e-285
-7.04951e-286
-4.70341e-286
-3.11072e-286
-2.03893e-286
-1.32419e-286
-8.51957e-287
-5.42882e-287
-3.42536e-287
-2.13941e-287
-1.32229e-287
-8.08425e-288
-4.88714e-288
-2.91989e-288
-1.72326e-288
-1.00407e-288
-5.77206e-289
-3.27161e-289
-1.82698e-289
-1.00438e-289
-5.43106e-290
-2.88591e-290
-1.50541e-290
-7.70061e-291
-3.85823e-291
-1.89099e-291
-9.05363e-292
-4.22731e-292
-1.91992e-292
-8.42309e-293
-3.64406e-293
-1.5554e-293
-6.55275e-294
-2.72572e-294
-1.11981e-294
-4.54494e-295
-1.82275e-295
-7.22481e-296
-2.83074e-296
-1.09652e-296
-4.19986e-297
-1.59089e-297
-5.96239e-298
-2.21451e-298
-8.20953e-299
-3.13465e-299
-1.38836e-299
-9.27804e-300
-1.0349e-299
-1.50315e-299
-2.34247e-299
-3.68311e-299
-5.75934e-299
-8.9298e-299
-1.37218e-298
-2.08981e-298
-3.15513e-298
-4.72356e-298
-7.01532e-298
-1.03422e-297
-1.51481e-297
-2.20719e-297
-3.20511e-297
-4.64954e-297
-6.75808e-297
-9.87126e-297
-1.4504e-296
-2.12422e-296
-2.92546e-296
-2.48967e-283
-1.8558e-283
-1.25737e-283
-8.33399e-284
-5.53161e-284
-3.69786e-284
-2.48926e-284
-1.68389e-284
-1.14184e-284
-7.74335e-285
-5.24088e-285
-3.53424e-285
-2.37141e-285
-1.58142e-285
-1.0472e-285
-6.88061e-286
-4.48301e-286
-2.89483e-286
-1.8517e-286
-1.17278e-286
-7.35119e-287
-4.55828e-287
-2.79472e-287
-1.69338e-287
-1.01347e-287
-5.98775e-288
-3.49009e-288
-2.00558e-288
-1.1354e-288
-6.32739e-289
-3.46805e-289
-1.86778e-289
-9.87416e-290
-5.11834e-290
-2.59829e-290
-1.29006e-290
-6.25566e-291
-2.95796e-291
-1.36125e-291
-6.07851e-292
-2.61106e-292
-1.10741e-292
-4.63822e-293
-1.9188e-293
-7.84179e-294
-3.16651e-294
-1.26356e-294
-4.98345e-295
-1.94288e-295
-7.48875e-296
-2.85419e-296
-1.07582e-296
-4.01126e-297
-1.48038e-297
-5.42065e-298
-1.99024e-298
-7.67109e-299
-3.64402e-299
-2.80484e-299
-3.45477e-299
-5.1731e-299
-8.09699e-299
-1.27039e-298
-1.97971e-298
-3.05934e-298
-4.68878e-298
-7.13069e-298
-1.07687e-297
-1.61642e-297
-2.41434e-297
-3.59338e-297
-5.33844e-297
-7.93277e-297
-1.18184e-296
-1.76964e-296
-2.66858e-296
-4.05277e-296
-6.16098e-296
-9.15215e-296
-1.23306e-295
-8.90903e-283
-6.82823e-283
-4.67024e-283
-3.06207e-283
-1.98643e-283
-1.29121e-283
-8.44407e-284
-5.55787e-284
-3.6775e-284
-2.44187e-284
-1.62406e-284
-1.07994e-284
-7.16815e-285
-4.74217e-285
-3.12283e-285
-2.04469e-285
-1.32978e-285
-8.58257e-286
-5.49277e-286
-3.48324e-286
-2.1872e-286
-1.35901e-286
-8.35023e-287
-5.07028e-287
-3.04041e-287
-1.79928e-287
-1.05006e-287
-6.03866e-288
-3.41919e-288
-1.90448e-288
-1.04253e-288
-5.60281e-289
-2.9529e-289
-1.52436e-289
-7.69747e-290
-3.7967e-290
-1.82631e-290
-8.55239e-291
-3.89066e-291
-1.71356e-291
-7.23384e-292
-3.01704e-292
-1.24324e-292
-5.062e-293
-2.03666e-293
-8.09822e-294
-3.18266e-294
-1.23645e-294
-4.74916e-295
-1.80375e-295
-6.77538e-296
-2.51755e-296
-9.25669e-297
-3.37082e-297
-1.21969e-297
-4.44973e-298
-1.74164e-298
-8.92015e-299
-7.72438e-299
-1.01563e-298
-1.54829e-298
-2.43114e-298
-3.81554e-298
-5.94909e-298
-9.20892e-298
-1.41608e-297
-2.16521e-297
-3.29566e-297
-5.00015e-297
-7.57308e-297
-1.14692e-296
-1.74005e-296
-2.64955e-296
-4.05624e-296
-6.25032e-296
-9.68931e-296
-1.5046e-295
-2.31014e-295
-3.39598e-295
-4.44612e-295
-2.86311e-282
-2.25053e-282
-1.5677e-282
-1.03141e-282
-6.62954e-283
-4.23431e-283
-2.70853e-283
-1.74051e-283
-1.12432e-283
-7.29655e-284
-4.75179e-284
-3.10093e-284
-2.02479e-284
-1.32095e-284
-8.59832e-285
-5.57695e-285
-3.6001e-285
-2.31038e-285
-1.47248e-285
-9.31102e-286
-5.83613e-286
-3.62287e-286
-2.22542e-286
-1.35157e-286
-8.10906e-287
-4.80219e-287
-2.80458e-287
-1.61386e-287
-9.14161e-288
-5.0922e-288
-2.78645e-288
-1.49613e-288
-7.87273e-289
-4.05455e-289
-2.04079e-289
-1.00233e-289
-4.79552e-290
-2.23067e-290
-1.00649e-290
-4.38873e-291
-1.82916e-291
-7.53317e-292
-3.06559e-292
-1.23277e-292
-4.89905e-293
-1.9242e-293
-7.47053e-294
-2.86738e-294
-1.08825e-294
-4.08479e-295
-1.51674e-295
-5.57285e-296
-2.02705e-296
-7.30731e-297
-2.6218e-297
-9.53802e-298
-3.80192e-298
-2.0851e-298
-1.97063e-298
-2.7029e-298
-4.17413e-298
-6.58889e-298
-1.03882e-297
-1.6289e-297
-2.54004e-297
-3.94247e-297
-6.09795e-297
-9.41136e-297
-1.45138e-296
-2.23979e-296
-3.46398e-296
-5.37653e-296
-8.38462e-296
-1.31447e-295
-2.07008e-295
-3.26424e-295
-5.11243e-295
-7.81646e-295
-1.12734e-294
-1.43833e-294
-8.50076e-282
-6.82329e-282
-4.84816e-282
-3.22257e-282
-2.0706e-282
-1.31056e-282
-8.25661e-283
-5.20553e-283
-3.29233e-283
-2.09046e-283
-1.33227e-283
-8.51584e-284
-5.45385e-284
-3.49549e-284
-2.23929e-284
-1.4321e-284
-9.13207e-285
-5.79945e-285
-3.66378e-285
-2.29996e-285
-1.43316e-285
-8.85538e-286
-5.4202e-286
-3.28312e-286
-1.96602e-286
-1.16276e-286
-6.78495e-287
-3.9022e-287
-2.20959e-287
-1.23045e-287
-6.73058e-288
-3.61188e-288
-1.89899e-288
-9.76793e-289
-4.90787e-289
-2.40473e-289
-1.14689e-289
-5.31335e-290
-2.38528e-290
-1.03354e-290
-4.27266e-291
-1.74507e-291
-7.04186e-292
-2.80772e-292
-1.10626e-292
-4.30786e-293
-1.65822e-293
-6.31083e-294
-2.37521e-294
-8.84314e-295
-3.25789e-295
-1.18811e-295
-4.29164e-296
-1.53757e-296
-5.49142e-297
-1.99852e-297
-8.10877e-298
-4.69468e-298
-4.71326e-298
-6.65335e-298
-1.03996e-297
-1.6557e-297
-2.63402e-297
-4.17359e-297
-6.58794e-297
-1.03698e-296
-1.62962e-296
-2.55998e-296
-4.02491e-296
-6.34096e-296
-1.00202e-295
-1.58942e-295
-2.53111e-295
-4.0433e-295
-6.4626e-295
-1.02783e-294
-1.60938e-294
-2.43392e-294
-3.43952e-294
-4.2957e-294
-2.37494e-281
-1.93886e-281
-1.40328e-281
-9.44695e-282
-6.09797e-282
-3.84735e-282
-2.40077e-282
-1.49209e-282
-9.27266e-283
-5.77361e-283
-3.60465e-283
-2.25664e-283
-1.41596e-283
-8.89834e-284
-5.59549e-284
-3.51721e-284
-2.20761e-284
-1.38207e-284
-8.62055e-285
-5.35121e-285
-3.30213e-285
-2.0234e-285
-1.22978e-285
-7.40548e-286
-4.4134e-286
-2.60016e-286
-1.51265e-286
-8.67917e-287
-4.90568e-287
-2.7281e-287
-1.49072e-287
-7.99298e-288
-4.19925e-288
-2.15831e-288
-1.08347e-288
-5.30277e-289
-2.52542e-289
-1.16781e-289
-5.23003e-290
-2.25932e-290
-9.30345e-291
-3.7837e-291
-1.51998e-291
-6.03216e-292
-2.36533e-292
-9.16618e-293
-3.5113e-293
-1.33e-293
-4.98283e-294
-1.84714e-294
-6.77796e-295
-2.46313e-295
-8.8711e-296
-3.17148e-296
-1.13189e-296
-4.13176e-297
-1.70168e-297
-1.02314e-297
-1.06857e-297
-1.54087e-297
-2.4399e-297
-3.93095e-297
-6.33451e-297
-1.01813e-296
-1.63267e-296
-2.61461e-296
-4.18582e-296
-6.70598e-296
-1.07609e-295
-1.73082e-295
-2.79164e-295
-4.51488e-295
-7.31555e-295
-1.1851e-294
-1.91166e-294
-3.0486e-294
-4.7491e-294
-7.08783e-294
-9.82877e-294
-1.20656e-293
-6.3228e-281
-5.2329e-281
-3.84936e-281
-2.62514e-281
-1.70642e-281
-1.07715e-281
-6.68498e-282
-4.11186e-282
-2.51935e-282
-1.54232e-282
-9.44986e-283
-5.7994e-283
-3.56552e-283
-2.19554e-283
-1.35336e-283
-8.34516e-284
-5.1433e-284
-3.16543e-284
-1.94345e-284
-1.18909e-284
-7.24244e-285
-4.38636e-285
-2.63863e-285
-1.57474e-285
-9.31274e-286
-5.45083e-286
-3.15374e-286
-1.80143e-286
-1.01455e-286
-5.62597e-287
-3.0675e-287
-1.64207e-287
-8.6168e-288
-4.42522e-288
-2.22024e-288
-1.08625e-288
-5.17188e-289
-2.39107e-289
-1.07058e-289
-4.62346e-290
-1.90333e-290
-7.73564e-291
-3.10457e-291
-1.23062e-291
-4.81925e-292
-1.86504e-292
-7.13505e-293
-2.69936e-293
-1.01032e-293
-3.7427e-294
-1.37298e-294
-4.99062e-295
-1.79897e-295
-6.44236e-296
-2.30582e-296
-8.46062e-297
-3.52454e-297
-2.16772e-297
-2.31934e-297
-3.40218e-297
-5.4654e-297
-8.9359e-297
-1.46295e-296
-2.39182e-296
-3.90599e-296
-6.37627e-296
-1.04132e-295
-1.7025e-295
-2.78801e-295
-4.57403e-295
-7.51644e-295
-1.23616e-294
-2.03108e-294
-3.32355e-294
-5.38839e-294
-8.58514e-294
-1.32748e-293
-1.95496e-293
-2.66642e-293
-3.22803e-293
-1.61894e-280
-1.35481e-280
-1.01057e-280
-6.97576e-281
-4.57013e-281
-2.89234e-281
-1.7903e-281
-1.09313e-281
-6.62245e-282
-3.99606e-282
-2.40756e-282
-1.45042e-282
-8.74406e-283
-5.27658e-283
-3.18695e-283
-1.92589e-283
-1.16382e-283
-7.02821e-284
-4.238e-284
-2.54945e-284
-1.52857e-284
-9.12494e-285
-5.41758e-285
-3.19534e-285
-1.87003e-285
-1.08458e-285
-6.2259e-286
-3.53255e-286
-1.97844e-286
-1.09215e-286
-5.93353e-287
-3.1677e-287
-1.65905e-287
-8.50976e-288
-4.267e-288
-2.08755e-288
-9.94399e-289
-4.60166e-289
-2.06325e-289
-8.92717e-290
-3.68495e-290
-1.50116e-290
-6.03698e-291
-2.39746e-291
-9.40525e-292
-3.6462e-292
-1.39746e-292
-5.29745e-293
-1.98718e-293
-7.38054e-294
-2.71574e-294
-9.907e-295
-3.58648e-295
-1.29089e-295
-4.64796e-296
-1.71742e-296
-7.21406e-297
-4.48375e-297
-4.86081e-297
-7.2356e-297
-1.18086e-296
-1.96367e-296
-3.27324e-296
-5.45384e-296
-9.08339e-296
-1.513e-295
-2.5217e-295
-4.20679e-295
-7.02495e-295
-1.17392e-294
-1.96151e-294
-3.27218e-294
-5.43602e-294
-8.95805e-294
-1.45567e-293
-2.3124e-293
-3.54637e-293
-5.15809e-293
-6.93621e-293
-8.30307e-293
-4.01481e-280
-3.39029e-280
-2.55885e-280
-1.78564e-280
-1.17902e-280
-7.48903e-281
-4.63171e-281
-2.81361e-281
-1.68934e-281
-1.00697e-281
-5.97718e-282
-3.54031e-282
-2.09516e-282
-1.23979e-282
-7.33818e-283
-4.34454e-283
-2.5723e-283
-1.52247e-283
-9.00299e-284
-5.31541e-284
-3.13079e-284
-1.83802e-284
-1.07449e-284
-6.24804e-285
-3.6098e-285
-2.06963e-285
-1.17602e-285
-6.61399e-286
-3.67641e-286
-2.01675e-286
-1.09011e-286
-5.7967e-287
-3.02719e-287
-1.54979e-287
-7.76373e-288
-3.79811e-288
-1.81073e-288
-8.3934e-289
-3.77298e-289
-1.63824e-289
-6.79628e-290
-2.78171e-290
-1.12373e-290
-4.48226e-291
-1.76603e-291
-6.87651e-292
-2.6474e-292
-1.0083e-292
-3.80131e-293
-1.41947e-293
-5.25384e-294
-1.92902e-294
-7.03336e-295
-2.55158e-295
-9.26642e-296
-3.45359e-296
-1.45975e-296
-9.08915e-297
-9.90678e-297
-1.49422e-296
-2.48027e-296
-4.20167e-296
-7.14146e-296
-1.21404e-295
-2.0637e-295
-3.50852e-295
-5.96681e-295
-1.01503e-294
-1.72652e-294
-2.93415e-294
-4.9754e-294
-8.40028e-294
-1.40774e-293
-2.33107e-293
-3.78994e-293
-5.9967e-293
-9.12245e-293
-1.31213e-292
-1.74341e-292
-2.06792e-292
-9.69665e-280
-8.24902e-280
-6.28808e-280
-4.4301e-280
-2.9466e-280
-1.87921e-280
-1.16254e-280
-7.03702e-281
-4.19507e-281
-2.47482e-281
-1.44985e-281
-8.45612e-282
-4.91871e-282
-2.85679e-282
-1.65793e-282
-9.61813e-283
-5.57824e-283
-3.23401e-283
-1.8737e-283
-1.08436e-283
-6.26493e-284
-3.6109e-284
-2.07451e-284
-1.18689e-284
-6.75532e-285
-3.8206e-285
-2.14452e-285
-1.19308e-285
-6.56953e-286
-3.575e-286
-1.9196e-286
-1.01535e-286
-5.28132e-287
-2.69645e-287
-1.34876e-287
-6.5963e-288
-3.14752e-288
-1.46203e-288
-6.59385e-289
-2.87648e-289
-1.20134e-289
-4.9493e-290
-2.01225e-290
-8.07766e-291
-3.20309e-291
-1.25536e-291
-4.86545e-292
-1.86598e-292
-7.0861e-293
-2.66648e-293
-9.95052e-294
-3.68569e-294
-1.35659e-294
-4.97169e-295
-1.82492e-295
-6.87036e-296
-2.91957e-296
-1.81156e-296
-1.97516e-296
-3.01577e-296
-5.09583e-296
-8.80383e-296
-1.52715e-295
-2.65031e-295
-4.59907e-295
-7.97928e-295
-1.3839e-294
-2.39835e-294
-4.15006e-294
-7.16146e-294
-1.23018e-293
-2.09818e-293
-3.54054e-293
-5.88208e-293
-9.55817e-293
-1.50587e-292
-2.27353e-292
-3.23839e-292
-4.25963e-292
-5.01472e-292
-2.29107e-279
-1.96089e-279
-1.50723e-279
-1.07067e-279
-7.16872e-280
-4.59031e-280
-2.8422e-280
-1.71621e-280
-1.01726e-280
-5.94866e-281
-3.44499e-281
-1.98147e-281
-1.13435e-281
-6.4734e-282
-3.68657e-282
-2.09667e-282
-1.19136e-282
-6.76458e-283
-3.83812e-283
-2.17568e-283
-1.23173e-283
-6.96087e-284
-3.92436e-284
-2.20545e-284
-1.23442e-284
-6.87427e-285
-3.80445e-285
-2.08986e-285
-1.13792e-285
-6.13254e-286
-3.26603e-286
-1.71605e-286
-8.87992e-287
-4.51706e-287
-2.25441e-287
-1.1017e-287
-5.26051e-288
-2.4488e-288
-1.10852e-288
-4.86194e-289
-2.04654e-289
-8.4975e-290
-3.482e-290
-1.40883e-290
-5.63142e-291
-2.22517e-291
-8.697e-292
-3.36459e-292
-1.28935e-292
-4.89808e-293
-1.84619e-293
-6.91106e-294
-2.57245e-294
-9.54028e-295
-3.54517e-295
-1.34992e-295
-5.76854e-296
-3.55889e-296
-3.87115e-296
-5.9809e-296
-1.0294e-295
-1.81494e-295
-3.21447e-295
-5.69576e-295
-1.00879e-294
-1.78521e-294
-3.15501e-294
-5.56426e-294
-9.78186e-294
-1.71141e-293
-2.97343e-293
-5.11519e-293
-8.67925e-293
-1.44514e-292
-2.3457e-292
-3.67996e-292
-5.51812e-292
-7.79407e-292
-1.01657e-291
-1.18943e-291
-5.31505e-279
-4.57182e-279
-3.53863e-279
-2.53147e-279
-1.70491e-279
-1.09583e-279
-6.79306e-280
-4.09486e-280
-2.41592e-280
-1.40222e-280
-8.03867e-281
-4.5661e-281
-2.57604e-281
-1.44614e-281
-8.08955e-282
-4.51377e-282
-2.51402e-282
-1.39834e-282
-7.76934e-283
-4.31228e-283
-2.39077e-283
-1.32361e-283
-7.31466e-284
-4.03272e-284
-2.21647e-284
-1.21344e-284
-6.61053e-285
-3.5795e-285
-1.9241e-285
-1.02528e-285
-5.40769e-286
-2.81852e-286
-1.44917e-286
-7.33678e-287
-3.65042e-287
-1.78139e-287
-8.50827e-288
-3.96854e-288
-1.80326e-288
-7.95452e-289
-3.37683e-289
-1.41425e-289
-5.84623e-290
-2.38668e-290
-9.62784e-291
-3.84023e-291
-1.51555e-291
-5.92225e-292
-2.29322e-292
-8.80679e-293
-3.35739e-293
-1.27187e-293
-4.79381e-294
-1.80131e-294
-6.78431e-295
-2.61567e-295
-1.12509e-295
-6.90388e-296
-7.48849e-296
-1.17086e-295
-2.05358e-295
-3.69612e-295
-6.68423e-295
-1.209e-294
-2.18443e-294
-3.93996e-294
-7.08834e-294
-1.27068e-293
-2.26647e-293
-4.01474e-293
-7.04516e-293
-1.22087e-292
-2.08076e-292
-3.46979e-292
-5.62433e-292
-8.78857e-292
-1.30994e-291
-1.83697e-291
-2.37907e-291
-2.76958e-291
-1.21436e-278
-1.04885e-278
-8.16535e-279
-5.87638e-279
-3.97786e-279
-2.56558e-279
-1.59241e-279
-9.58748e-280
-5.63498e-280
-3.2497e-280
-1.84649e-280
-1.03713e-280
-5.77371e-281
-3.19239e-281
-1.75603e-281
-9.62184e-282
-5.25678e-282
-2.86569e-282
-1.55957e-282
-8.47573e-283
-4.60054e-283
-2.49394e-283
-1.34998e-283
-7.29441e-284
-3.93238e-284
-2.11368e-284
-1.13186e-284
-6.03235e-285
-3.1962e-285
-1.68142e-285
-8.76977e-286
-4.52786e-286
-2.31021e-286
-1.16274e-286
-5.7618e-287
-2.80552e-287
-1.33952e-287
-6.25781e-288
-2.85364e-288
-1.26603e-288
-5.42144e-289
-2.29111e-289
-9.55966e-290
-3.94034e-290
-1.60537e-290
-6.46911e-291
-2.58019e-291
-1.01935e-291
-3.99224e-292
-1.55138e-292
-5.98748e-293
-2.29752e-293
-8.77632e-294
-3.34404e-294
-1.27753e-294
-4.99158e-295
-2.16436e-295
-1.32408e-295
-1.43451e-295
-2.27152e-295
-4.06115e-295
-7.46176e-295
-1.3775e-294
-2.54202e-294
-4.68203e-294
-8.59897e-294
-1.57312e-293
-2.8629e-293
-5.1743e-293
-9.26768e-293
-1.6406e-292
-2.86081e-292
-4.89352e-292
-8.16871e-292
-1.3222e-291
-2.05867e-291
-3.05245e-291
-4.25455e-291
-5.47778e-291
-6.35041e-291
-2.7394e-278
-2.37405e-278
-1.85716e-278
-1.3433e-278
-9.13295e-279
-5.90838e-279
-3.67178e-279
-2.20874e-279
-1.29408e-279
-7.42203e-280
-4.18442e-280
-2.32689e-280
-1.27984e-280
-6.97846e-281
-3.77912e-281
-2.03561e-281
-1.09192e-281
-5.83831e-282
-3.11387e-282
-1.65753e-282
-8.80901e-283
-4.67509e-283
-2.47781e-283
-1.31134e-283
-6.92805e-284
-3.65236e-284
-1.92017e-284
-1.00594e-284
-5.24627e-285
-2.72076e-285
-1.40127e-285
-7.15667e-286
-3.61873e-286
-1.80842e-286
-8.91536e-287
-4.32734e-287
-2.06378e-287
-9.65049e-288
-4.41441e-288
-1.96915e-288
-8.50449e-289
-3.62662e-289
-1.52763e-289
-6.3593e-290
-2.61775e-290
-1.06623e-290
-4.30012e-291
-1.71853e-291
-6.81154e-292
-2.68002e-292
-1.04776e-292
-4.0747e-293
-1.57831e-293
-6.10109e-294
-2.36531e-294
-9.37206e-295
-4.10371e-295
-2.51263e-295
-2.7287e-295
-4.382e-295
-7.98792e-295
-1.49788e-294
-2.82128e-294
-5.30783e-294
-9.95663e-294
-1.86001e-293
-3.45603e-293
-6.37726e-293
-1.16645e-292
-2.10997e-292
-3.76387e-292
-6.5985e-292
-1.1321e-291
-1.89118e-291
-3.05688e-291
-4.74449e-291
-7.00334e-291
-9.71138e-291
-1.24425e-290
-1.43753e-290
-6.11449e-278
-5.31379e-278
-4.1735e-278
-3.03152e-278
-2.06878e-278
-1.3419e-278
-8.34882e-279
-5.01889e-279
-2.93274e-279
-1.6741e-279
-9.37401e-280
-5.1666e-280
-2.81104e-280
-1.5134e-280
-8.07856e-281
-4.28277e-281
-2.25799e-281
-1.18527e-281
-6.20022e-282
-3.23455e-282
-1.68379e-282
-8.74991e-283
-4.5403e-283
-2.35277e-283
-1.21752e-283
-6.2905e-284
-3.24377e-284
-1.66851e-284
-8.55455e-285
-4.36767e-285
-2.21817e-285
-1.11908e-285
-5.6001e-286
-2.77516e-286
-1.35944e-286
-6.57041e-287
-3.12696e-287
-1.46236e-287
-6.70526e-288
-3.00558e-288
-1.30852e-288
-5.62879e-289
-2.39321e-289
-1.00615e-289
-4.18497e-290
-1.72319e-290
-7.02891e-291
-2.84241e-291
-1.14049e-291
-4.5447e-292
-1.80035e-292
-7.09776e-293
-2.78842e-293
-1.09373e-293
-4.30382e-294
-1.73017e-294
-7.66486e-295
-4.72078e-295
-5.16605e-295
-8.43041e-295
-1.56714e-294
-2.99776e-294
-5.75639e-294
-1.10306e-293
-2.10506e-293
-3.99527e-293
-7.53043e-293
-1.40717e-292
-2.60165e-292
-4.74752e-292
-8.52584e-292
-1.50157e-291
-2.58271e-291
-4.31672e-291
-6.96871e-291
-1.07862e-290
-1.5861e-290
-2.18997e-290
-2.79448e-290
-3.21948e-290
-1.35281e-277
-1.17835e-277
-9.28557e-278
-6.76864e-278
-4.63359e-278
-3.01236e-278
-1.87609e-278
-1.12724e-278
-6.5722e-279
-3.73635e-279
-2.07969e-279
-1.13726e-279
-6.12781e-280
-3.26143e-280
-1.71823e-280
-8.97633e-281
-4.65711e-281
-2.40264e-281
-1.23392e-281
-6.31402e-282
-3.22158e-282
-1.64e-282
-8.33362e-283
-4.22849e-283
-2.1428e-283
-1.08452e-283
-5.48152e-284
-2.7659e-284
-1.39259e-284
-6.99133e-285
-3.49657e-285
-1.74013e-285
-8.60594e-286
-4.22315e-286
-2.0529e-286
-9.86745e-287
-4.68081e-287
-2.18697e-287
-1.00423e-287
-4.51945e-288
-1.98183e-288
-8.59443e-289
-3.68665e-289
-1.56483e-289
-6.5753e-290
-2.73669e-290
-1.12896e-290
-4.61949e-291
-1.87642e-291
-7.57322e-292
-3.03997e-292
-1.21499e-292
-4.84108e-293
-1.92668e-293
-7.69497e-294
-3.13957e-294
-1.41001e-294
-8.78733e-295
-9.75403e-295
-1.62153e-294
-3.07416e-294
-5.99466e-294
-1.17243e-293
-2.28576e-293
-4.43248e-293
-8.5363e-293
-1.63009e-292
-3.08093e-292
-5.75115e-292
-1.05765e-291
-1.91053e-291
-3.37817e-291
-5.82283e-291
-9.73615e-291
-1.57001e-290
-2.42436e-290
-3.55357e-290
-4.88894e-290
-6.21755e-290
-7.14656e-290
-2.97121e-277
-2.59292e-277
-2.04886e-277
-1.49788e-277
-1.0281e-277
-6.69664e-278
-4.17433e-278
-2.50708e-278
-1.45894e-278
-8.26513e-279
-4.57658e-279
-2.48541e-279
-1.32769e-279
-6.99408e-280
-3.64117e-280
-1.8769e-280
-9.59465e-281
-4.87098e-281
-2.45881e-281
-1.2354e-281
-6.18384e-282
-3.08611e-282
-1.53656e-282
-7.63663e-283
-3.79001e-283
-1.8788e-283
-9.30398e-284
-4.60241e-284
-2.27364e-284
-1.12119e-284
-5.51532e-285
-2.70397e-285
-1.31973e-285
-6.40386e-286
-3.08465e-286
-1.47246e-286
-6.95287e-287
-3.24141e-287
-1.48883e-287
-6.71984e-288
-2.96481e-288
-1.295e-288
-5.60042e-289
-2.39854e-289
-1.01768e-289
-4.27982e-290
-1.78503e-290
-7.38878e-291
-3.03772e-291
-1.24151e-291
-5.04891e-292
-2.04527e-292
-8.26341e-293
-3.33609e-293
-1.35208e-293
-5.6e-294
-2.55495e-294
-1.62194e-294
-1.84006e-294
-3.12483e-294
-6.04162e-294
-1.19997e-293
-2.38767e-293
-4.73024e-293
-9.30892e-293
-1.8168e-292
-3.51055e-292
-6.7031e-292
-1.26198e-291
-2.33668e-291
-4.24256e-291
-7.52727e-291
-1.29979e-290
-2.17404e-290
-3.50239e-290
-5.39756e-290
-7.8904e-290
-1.08232e-289
-1.37264e-289
-1.57473e-289
-6.4864e-277
-5.6693e-277
-4.48982e-277
-3.2904e-277
-2.26337e-277
-1.47664e-277
-9.21146e-278
-5.53043e-278
-3.21312e-278
-1.81478e-278
-1.00036e-278
-5.39987e-279
-2.8627e-279
-1.49429e-279
-7.69687e-280
-3.91972e-280
-1.97692e-280
-9.88912e-281
-4.91281e-281
-2.42664e-281
-1.19297e-281
-5.84238e-282
-2.85256e-282
-1.38952e-282
-6.75662e-283
-3.28119e-283
-1.59191e-283
-7.71739e-284
-3.73849e-284
-1.80932e-284
-8.7449e-285
-4.21833e-285
-2.02905e-285
-9.72135e-286
-4.633e-286
-2.19298e-286
-1.02922e-286
-4.78073e-287
-2.19342e-287
-9.91548e-288
-4.39565e-288
-1.9316e-288
-8.41332e-289
-3.63262e-289
-1.5552e-289
-6.60443e-290
-2.78351e-290
-1.16501e-290
-4.84574e-291
-2.00468e-291
-8.2563e-292
-3.38866e-292
-1.38773e-292
-5.68102e-293
-2.33572e-293
-9.82178e-294
-4.56264e-294
-2.97214e-294
-3.47436e-294
-6.04387e-294
-1.19147e-293
-2.40786e-293
-4.86836e-293
-9.78793e-293
-1.95225e-292
-3.85631e-292
-7.5307e-292
-1.45102e-291
-2.75245e-291
-5.12694e-291
-9.34994e-291
-1.66377e-290
-2.87739e-290
-4.81406e-290
-7.74918e-290
-1.19225e-289
-1.73899e-289
-2.37949e-289
-3.01089e-289
-3.44882e-289
-1.40899e-276
-1.23305e-276
-9.78322e-277
-7.18405e-277
-4.95064e-277
-3.23416e-277
-2.01876e-277
-1.21167e-277
-7.02993e-278
-3.96024e-278
-2.17448e-278
-1.1676e-278
-6.14878e-279
-3.18373e-279
-1.62443e-279
-8.18342e-280
-4.07744e-280
-2.01247e-280
-9.85271e-281
-4.79074e-281
-2.31607e-281
-1.11439e-281
-5.34143e-282
-2.55249e-282
-1.21695e-282
-5.79249e-283
-2.75402e-283
-1.30846e-283
-6.2138e-284
-2.94982e-284
-1.39967e-284
-6.63592e-285
-3.14171e-285
-1.48406e-285
-6.98687e-286
-3.27405e-286
-1.52474e-286
-7.04496e-287
-3.22345e-287
-1.45716e-287
-6.48028e-288
-2.86082e-288
-1.25343e-288
-5.45008e-289
-2.35209e-289
-1.0078e-289
-4.28888e-290
-1.81383e-290
-7.62813e-291
-3.19256e-291
-1.33088e-291
-5.53145e-292
-2.29487e-292
-9.52126e-293
-3.9695e-293
-1.69492e-293
-8.03764e-294
-5.41597e-294
-6.57757e-294
-1.17491e-293
-2.36065e-293
-4.84856e-293
-9.94802e-293
-2.02702e-292
-4.09222e-292
-8.17096e-292
-1.61073e-291
-3.12852e-291
-5.97377e-291
-1.11852e-290
-2.04765e-290
-3.65291e-290
-6.32578e-290
-1.0586e-289
-1.70288e-289
-2.61634e-289
-3.8091e-289
-5.20149e-289
-6.56943e-289
-7.51537e-289
-3.0481e-276
-2.67023e-276
-2.12181e-276
-1.56065e-276
-1.07707e-276
-7.04404e-277
-4.39911e-277
-2.63968e-277
-1.52969e-277
-8.5982e-278
-4.70526e-278
-2.51501e-278
-1.31678e-278
-6.76993e-279
-3.42548e-279
-1.70914e-279
-8.42396e-280
-4.10792e-280
-1.98477e-280
-9.51344e-281
-4.52914e-281
-2.14393e-281
-1.01008e-281
-4.74068e-282
-2.21839e-282
-1.03581e-282
-4.82912e-283
-2.24936e-283
-1.04728e-283
-4.87565e-284
-2.27003e-284
-1.05692e-284
-4.91977e-285
-2.28825e-285
-1.06259e-285
-4.92122e-286
-2.27015e-286
-1.04149e-286
-4.7438e-287
-2.14054e-287
-9.53215e-288
-4.22051e-288
-1.85729e-288
-8.12176e-289
-3.52914e-289
-1.52404e-289
-6.54279e-290
-2.79355e-290
-1.18693e-290
-5.02181e-291
-2.11744e-291
-8.90591e-292
-3.74071e-292
-1.57195e-292
-6.64221e-293
-2.88044e-293
-1.39867e-293
-9.83502e-294
-1.25068e-293
-2.29815e-293
-4.70289e-293
-9.80466e-293
-2.03861e-292
-4.20419e-292
-8.57978e-292
-1.72958e-291
-3.43787e-291
-6.72438e-291
-1.29138e-290
-2.42886e-290
-4.46116e-290
-7.97573e-290
-1.38273e-289
-2.31444e-289
-3.721e-289
-5.71053e-289
-8.30129e-289
-1.13169e-288
-1.42714e-288
-1.63094e-288
-6.57191e-276
-5.76201e-276
-4.58423e-276
-3.37634e-276
-2.333e-276
-1.52716e-276
-9.54125e-277
-5.72386e-277
-3.31362e-277
-1.85901e-277
-1.01439e-277
-5.40079e-278
-2.8135e-278
-1.43763e-278
-7.22124e-279
-3.5727e-279
-1.74408e-279
-8.4142e-280
-4.0176e-280
-1.90108e-280
-8.92561e-281
-4.16264e-281
-1.9304e-281
-8.91045e-282
-4.09756e-282
-1.8789e-282
-8.5977e-283
-3.92905e-283
-1.79435e-283
-8.19364e-284
-3.74266e-284
-1.71049e-284
-7.8219e-285
-3.57816e-285
-1.63664e-285
-7.47933e-286
-3.41147e-286
-1.55108e-286
-7.01899e-287
-3.15507e-287
-1.40398e-287
-6.22273e-288
-2.74563e-288
-1.20557e-288
-5.26685e-289
-2.28941e-289
-9.90321e-290
-4.2643e-290
-1.82867e-290
-7.81439e-291
-3.32991e-291
-1.41617e-291
-6.01748e-292
-2.55936e-292
-1.09549e-292
-4.82646e-293
-2.40871e-293
-1.78438e-293
-2.39234e-293
-4.52659e-293
-9.42553e-293
-1.99195e-292
-4.19145e-292
-8.73703e-292
-1.80014e-291
-3.6595e-291
-7.32686e-291
-1.44188e-290
-2.78285e-290
-5.25434e-290
-9.6781e-290
-1.73347e-289
-3.00817e-289
-5.03613e-289
-8.09314e-289
-1.24088e-288
-1.80161e-288
-2.45275e-288
-3.08924e-288
-3.52743e-288
-1.41307e-275
-1.23977e-275
-9.8734e-276
-7.27981e-276
-5.03523e-276
-3.29843e-276
-2.06144e-276
-1.23641e-276
-7.15156e-277
-4.00569e-277
-2.1804e-277
-1.15699e-277
-6.00125e-278
-3.05023e-278
-1.52246e-278
-7.47703e-279
-3.61948e-279
-1.72979e-279
-8.1734e-280
-3.82346e-280
-1.77292e-280
-8.15836e-281
-3.72963e-281
-1.6956e-281
-7.67352e-282
-3.46008e-282
-1.55591e-282
-6.98325e-283
-3.13076e-283
-1.40305e-283
-6.28928e-284
-2.82126e-284
-1.26689e-284
-5.69552e-285
-2.56309e-285
-1.15411e-285
-5.19613e-286
-2.33685e-286
-1.04846e-286
-4.68476e-287
-2.07847e-287
-9.202e-288
-4.06274e-288
-1.78791e-288
-7.83998e-289
-3.42503e-289
-1.49073e-289
-6.46541e-290
-2.79511e-290
-1.20507e-290
-5.18442e-291
-2.22737e-291
-9.56595e-292
-4.11461e-292
-1.78305e-292
-7.98539e-293
-4.11497e-293
-3.24409e-293
-4.61025e-293
-8.98248e-293
-1.90089e-292
-4.06667e-292
-8.64819e-292
-1.8198e-291
-3.78095e-291
-7.74278e-291
-1.56e-290
-3.08619e-290
-5.98188e-290
-1.1332e-289
-2.09231e-289
-3.7535e-289
-6.519e-289
-1.09157e-288
-1.75356e-288
-2.68661e-288
-3.89669e-288
-5.29921e-288
-6.66762e-288
-7.60821e-288
-3.03159e-275
-2.66125e-275
-2.1211e-275
-1.5653e-275
-1.08354e-275
-7.10216e-276
-4.43982e-276
-2.66242e-276
-1.53885e-276
-8.60749e-277
-4.67553e-277
-2.47389e-277
-1.27848e-277
-6.4685e-278
-3.21105e-278
-1.56697e-278
-7.5302e-279
-3.56924e-279
-1.6711e-279
-7.73874e-280
-3.54913e-280
-1.61385e-280
-7.284e-281
-3.26661e-281
-1.45706e-281
-6.4704e-282
-2.86329e-282
-1.26379e-282
-5.56858e-283
-2.45151e-283
-1.07916e-283
-4.75327e-284
-2.09606e-284
-9.25738e-285
-4.09568e-285
-1.81506e-285
-8.0543e-286
-3.57653e-286
-1.58771e-286
-7.03635e-287
-3.10511e-287
-1.37e-287
-6.03907e-288
-2.65805e-288
-1.16762e-288
-5.11741e-289
-2.23746e-289
-9.75953e-290
-4.24768e-290
-1.84533e-290
-8.00584e-291
-3.47085e-291
-1.50513e-291
-6.54132e-292
-2.86822e-292
-1.30688e-292
-6.99416e-293
-5.92881e-293
-8.96099e-293
-1.79613e-292
-3.85754e-292
-8.34279e-292
-1.79076e-291
-3.79937e-291
-7.95151e-291
-1.63869e-290
-3.31953e-290
-6.59685e-290
-1.28333e-289
-2.43798e-289
-4.51064e-289
-8.10271e-289
-1.40826e-288
-2.35844e-288
-3.78766e-288
-5.79951e-288
-8.40479e-288
-1.14197e-287
-1.43569e-287
-1.63733e-287
-6.49226e-275
-5.70165e-275
-4.54735e-275
-3.35817e-275
-2.32612e-275
-1.5254e-275
-9.53775e-276
-5.71852e-276
-3.30318e-276
-1.84549e-276
-1.0007e-276
-5.28204e-277
-2.72116e-277
-1.37145e-277
-6.77637e-278
-3.28878e-278
-1.57053e-278
-7.39129e-279
-3.43311e-279
-1.57591e-279
-7.1581e-280
-3.22101e-280
-1.43745e-280
-6.36881e-281
-2.80432e-281
-1.22836e-281
-5.35759e-282
-2.32899e-282
-1.01e-282
-4.37347e-283
-1.89261e-283
-8.19197e-284
-3.54919e-284
-1.54015e-284
-6.69717e-285
-2.91897e-285
-1.27522e-285
-5.58265e-286
-2.44757e-286
-1.07353e-286
-4.70084e-287
-2.0619e-287
-9.05284e-288
-3.97597e-288
-1.74581e-288
-7.66062e-289
-3.3583e-289
-1.47066e-289
-6.43376e-290
-2.81229e-290
-1.22872e-290
-5.36886e-291
-2.34813e-291
-1.03009e-291
-4.56768e-292
-2.12022e-292
-1.18693e-292
-1.09265e-292
-1.75819e-292
-3.61886e-292
-7.8757e-292
-1.7196e-291
-3.72109e-291
-7.95135e-291
-1.67456e-290
-3.46986e-290
-7.06159e-290
-1.40875e-289
-2.74903e-289
-5.2349e-289
-9.70215e-289
-1.74482e-288
-3.03433e-288
-5.08242e-288
-8.16061e-288
-1.24891e-287
-1.80876e-287
-2.45583e-287
-3.08547e-287
-3.51726e-287
-1.38833e-274
-1.21969e-274
-9.73268e-275
-7.19157e-275
-4.98401e-275
-3.2696e-275
-2.04468e-275
-1.22574e-275
-7.07649e-276
-3.9498e-276
-2.13858e-276
-1.12652e-276
-5.78823e-277
-2.90768e-277
-1.43101e-277
-6.91284e-278
-3.28346e-278
-1.53585e-278
-7.08498e-279
-3.22761e-279
-1.45384e-279
-6.48268e-280
-2.86465e-280
-1.25581e-280
-5.46705e-281
-2.36583e-281
-1.01867e-281
-4.36828e-282
-1.86737e-282
-7.96518e-283
-3.39321e-283
-1.44501e-283
-6.15679e-284