/*--------------------------------*- C++ -*----------------------------------*\
  =========                 |
  \\      /  F ield         | OpenFOAM: The Open Source CFD Toolbox
   \\    /   O peration     | Website:  https://openfoam.org
    \\  /    A nd           | Version:  11
     \\/     M anipulation  |
\*---------------------------------------------------------------------------*/
FoamFile
{
    format      ascii;
    class       volScalarField;
    location    "5";
    object      C;
}
// * * * * * * * * * * * * * * * * * * * * * * * * * * * * * * * * * * * * * //

dimensions      [0 0 0 1 0 0 0];

internalField   nonuniform List<scalar> 
427520
(
4.43917e-68
4.35633e-68
4.21665e-68
4.0375e-68
3.83146e-68
3.60817e-68
3.37523e-68
3.13865e-68
2.90322e-68
2.67265e-68
2.44981e-68
2.2368e-68
2.03509e-68
1.84566e-68
1.66904e-68
1.50542e-68
1.35472e-68
1.21663e-68
1.09071e-68
9.76379e-69
8.72982e-69
7.79824e-69
6.96181e-69
6.2133e-69
5.5456e-69
4.95183e-69
4.42546e-69
3.96036e-69
3.55081e-69
3.19156e-69
2.87782e-69
2.60526e-69
2.37001e-69
2.16865e-69
1.99819e-69
1.85604e-69
1.74001e-69
1.64829e-69
1.57945e-69
1.53237e-69
1.50632e-69
1.50087e-69
1.51591e-69
1.55167e-69
1.60869e-69
1.68785e-69
1.79035e-69
1.9177e-69
2.07179e-69
2.25483e-69
2.4694e-69
2.71843e-69
3.0052e-69
3.33338e-69
3.70695e-69
4.13026e-69
4.60792e-69
5.14483e-69
5.74604e-69
6.41675e-69
7.16211e-69
7.98714e-69
8.89652e-69
9.89436e-69
1.09839e-68
1.21674e-68
1.34453e-68
1.48163e-68
1.62765e-68
1.78188e-68
1.94326e-68
2.11025e-68
2.2808e-68
2.4522e-68
2.62099e-68
2.7828e-68
2.93214e-68
3.06201e-68
3.16327e-68
3.22335e-68
1.3699e-67
1.3506e-67
1.31603e-67
1.26964e-67
1.21438e-67
1.15278e-67
1.08696e-67
1.01874e-67
9.49612e-68
8.80805e-68
8.13313e-68
7.47914e-68
6.852e-68
6.25604e-68
5.69421e-68
5.16827e-68
4.67907e-68
4.22663e-68
3.81039e-68
3.42927e-68
3.08186e-68
2.76648e-68
2.48128e-68
2.22432e-68
1.99362e-68
1.78722e-68
1.60321e-68
1.43973e-68
1.29506e-68
1.16755e-68
1.0557e-68
9.58144e-69
8.73626e-69
8.01034e-69
7.39385e-69
6.87825e-69
6.45624e-69
6.12176e-69
5.86993e-69
5.697e-69
5.6004e-69
5.57861e-69
5.63124e-69
5.75895e-69
5.96348e-69
6.24765e-69
6.61532e-69
7.07144e-69
7.62206e-69
8.27427e-69
9.03625e-69
9.91723e-69
1.09275e-68
1.20782e-68
1.33815e-68
1.48502e-68
1.6498e-68
1.83386e-68
2.03861e-68
2.26542e-68
2.51562e-68
2.7904e-68
3.09076e-68
3.41747e-68
3.77094e-68
4.15111e-68
4.5574e-68
4.98849e-68
5.44226e-68
5.91556e-68
6.40411e-68
6.90226e-68
7.40283e-68
7.8969e-68
8.37359e-68
8.81987e-68
9.22021e-68
9.55637e-68
9.80692e-68
9.94681e-68
2.37485e-67
2.34608e-67
2.29342e-67
2.22142e-67
2.13423e-67
2.03561e-67
1.92885e-67
1.81687e-67
1.70215e-67
1.58679e-67
1.47256e-67
1.36088e-67
1.25287e-67
1.1494e-67
1.0511e-67
9.58415e-68
8.71592e-68
7.90756e-68
7.15906e-68
6.4695e-68
5.83721e-68
5.25996e-68
4.73513e-68
4.25983e-68
3.831e-68
3.44554e-68
3.10034e-68
2.79238e-68
2.51875e-68
2.27669e-68
2.06361e-68
1.87715e-68
1.71512e-68
1.57556e-68
1.45673e-68
1.35711e-68
1.27538e-68
1.21046e-68
1.16144e-68
1.12766e-68
1.10863e-68
1.10407e-68
1.11389e-68
1.13821e-68
1.17732e-68
1.2317e-68
1.30204e-68
1.38921e-68
1.49425e-68
1.61839e-68
1.76305e-68
1.9298e-68
2.12039e-68
2.33669e-68
2.58072e-68
2.85458e-68
3.16043e-68
3.50047e-68
3.87683e-68
4.29157e-68
4.74653e-68
5.24329e-68
5.78303e-68
6.36639e-68
6.99333e-68
7.66298e-68
8.37342e-68
9.12152e-68
9.90267e-68
1.07106e-67
1.15371e-67
1.2372e-67
1.32023e-67
1.4013e-67
1.4786e-67
1.55002e-67
1.61316e-67
1.66532e-67
1.70347e-67
1.72432e-67
3.49436e-67
3.45623e-67
3.38568e-67
3.28821e-67
3.16905e-67
3.033e-67
2.88446e-67
2.72736e-67
2.56516e-67
2.40085e-67
2.23696e-67
2.07563e-67
1.91858e-67
1.76716e-67
1.62243e-67
1.48514e-67
1.3558e-67
1.23471e-67
1.12198e-67
1.01758e-67
9.21372e-68
8.33112e-68
7.52492e-68
6.7915e-68
6.12694e-68
5.5271e-68
4.9878e-68
4.50485e-68
4.07421e-68
3.69196e-68
3.35442e-68
3.05814e-68
2.79997e-68
2.57703e-68
2.38675e-68
2.22685e-68
2.09539e-68
1.99072e-68
1.9115e-68
1.85669e-68
1.82556e-68
1.81766e-68
1.83285e-68
1.87128e-68
1.93335e-68
2.01979e-68
2.13158e-68
2.26997e-68
2.43648e-68
2.6329e-68
2.86124e-68
3.12377e-68
3.42294e-68
3.76139e-68
4.14189e-68
4.56734e-68
5.04063e-68
5.56464e-68
6.14212e-68
6.7756e-68
7.46723e-68
8.21869e-68
9.03099e-68
9.90427e-68
1.08377e-67
1.18289e-67
1.28744e-67
1.39686e-67
1.51039e-67
1.62705e-67
1.74557e-67
1.86444e-67
1.9818e-67
2.09548e-67
2.20299e-67
2.30147e-67
2.38774e-67
2.45831e-67
2.5094e-67
2.53702e-67
4.7639e-67
4.7158e-67
4.62623e-67
4.50172e-67
4.34854e-67
4.1726e-67
3.97937e-67
3.77381e-67
3.56037e-67
3.34296e-67
3.12493e-67
2.90917e-67
2.69803e-67
2.49345e-67
2.29692e-67
2.10959e-67
1.93227e-67
1.76548e-67
1.60951e-67
1.46443e-67
1.33016e-67
1.20646e-67
1.09302e-67
9.89405e-68
8.95164e-68
8.09791e-68
7.32764e-68
6.63553e-68
6.01639e-68
5.46515e-68
4.97697e-68
4.5473e-68
4.17194e-68
3.84702e-68
3.56907e-68
3.33501e-68
3.14217e-68
2.9883e-68
2.87154e-68
2.79046e-68
2.74403e-68
2.73161e-68
2.75299e-68
2.80832e-68
2.89816e-68
3.02343e-68
3.18545e-68
3.38587e-68
3.62671e-68
3.91032e-68
4.23936e-68
4.61676e-68
5.04573e-68
5.52964e-68
6.07203e-68
6.6765e-68
7.34664e-68
8.08593e-68
8.89758e-68
9.78445e-68
1.07488e-67
1.17922e-67
1.29152e-67
1.41171e-67
1.53959e-67
1.67477e-67
1.81666e-67
1.96442e-67
2.11697e-67
2.2729e-67
2.43051e-67
2.58772e-67
2.74208e-67
2.89076e-67
3.03055e-67
3.15786e-67
3.26871e-67
3.35882e-67
3.42366e-67
3.45849e-67
6.22155e-67
6.16235e-67
6.05169e-67
5.89722e-67
5.70642e-67
5.48637e-67
5.24368e-67
4.98445e-67
4.71416e-67
4.4377e-67
4.15933e-67
3.88273e-67
3.61095e-67
3.34655e-67
3.09156e-67
2.84754e-67
2.61566e-67
2.39672e-67
2.19121e-67
1.99934e-67
1.82111e-67
1.65634e-67
1.50468e-67
1.36571e-67
1.23889e-67
1.12363e-67
1.01932e-67
9.25311e-68
8.40973e-68
7.65679e-68
6.98825e-68
6.39839e-68
5.88188e-68
5.43379e-68
5.04968e-68
4.72559e-68
4.45804e-68
4.24412e-68
4.08139e-68
3.96798e-68
3.90251e-68
3.88414e-68
3.91253e-68
3.98786e-68
4.1108e-68
4.28251e-68
4.50464e-68
4.77927e-68
5.10893e-68
5.49657e-68
5.94549e-68
6.45936e-68
7.04209e-68
7.69783e-68
8.43086e-68
9.24547e-68
1.01459e-67
1.11361e-67
1.22198e-67
1.33999e-67
1.46787e-67
1.60574e-67
1.75359e-67
1.91125e-67
2.07835e-67
2.25432e-67
2.43831e-67
2.62916e-67
2.82541e-67
3.02522e-67
3.22635e-67
3.42615e-67
3.62153e-67
3.80895e-67
3.98445e-67
4.1436e-67
4.28161e-67
4.39336e-67
4.47344e-67
4.51628e-67
7.90988e-67
7.83802e-67
7.70334e-67
7.51486e-67
7.28139e-67
7.01135e-67
6.71266e-67
6.39266e-67
6.058e-67
5.71464e-67
5.36785e-67
5.02216e-67
4.68145e-67
4.34894e-67
4.02724e-67
3.71841e-67
3.42402e-67
3.14518e-67
2.88262e-67
2.63674e-67
2.40764e-67
2.19519e-67
1.99909e-67
1.81885e-67
1.6539e-67
1.50358e-67
1.36716e-67
1.2439e-67
1.13303e-67
1.03382e-67
9.4552e-68
8.67442e-68
7.98929e-68
7.39375e-68
6.88226e-68
6.44989e-68
6.09232e-68
5.80585e-68
5.58744e-68
5.43467e-68
5.3458e-68
5.31973e-68
5.35599e-68
5.45476e-68
5.61683e-68
5.84361e-68
6.13706e-68
6.49974e-68
6.93472e-68
7.44556e-68
8.03626e-68
8.71123e-68
9.47513e-68
1.03329e-67
1.12896e-67
1.23501e-67
1.35193e-67
1.48018e-67
1.62014e-67
1.77212e-67
1.93633e-67
2.11285e-67
2.30158e-67
2.50222e-67
2.71422e-67
2.93678e-67
3.16875e-67
3.40863e-67
3.65452e-67
3.90409e-67
4.15453e-67
4.40255e-67
4.64434e-67
4.87559e-67
5.09147e-67
5.28669e-67
5.45549e-67
5.59179e-67
5.68919e-67
5.74117e-67
9.87757e-67
9.79106e-67
9.62864e-67
9.40091e-67
9.11827e-67
8.7907e-67
8.42763e-67
8.03779e-67
7.62918e-67
7.209e-67
6.78361e-67
6.35856e-67
5.93861e-67
5.52775e-67
5.12925e-67
4.74574e-67
4.37922e-67
4.03117e-67
3.70261e-67
3.39413e-67
3.10596e-67
2.83808e-67
2.59017e-67
2.36176e-67
2.15221e-67
1.96079e-67
1.78667e-67
1.62898e-67
1.48684e-67
1.35936e-67
1.24568e-67
1.14496e-67
1.05642e-67
9.7931e-68
9.12973e-68
8.56804e-68
8.10274e-68
7.72928e-68
7.44389e-68
7.24361e-68
7.12625e-68
7.0904e-68
7.13544e-68
7.26155e-68
7.46961e-68
7.76128e-68
8.13891e-68
8.60552e-68
9.16475e-68
9.82085e-68
1.05786e-67
1.1443e-67
1.24198e-67
1.35145e-67
1.4733e-67
1.60811e-67
1.75641e-67
1.9187e-67
2.0954e-67
2.28683e-67
2.49317e-67
2.71442e-67
2.95039e-67
3.20063e-67
3.46438e-67
3.74057e-67
4.02773e-67
4.32395e-67
4.62685e-67
4.93354e-67
5.24057e-67
5.54392e-67
5.83899e-67
6.12056e-67
6.38286e-67
6.61954e-67
6.8238e-67
6.9884e-67
7.10582e-67
7.16836e-67
1.21811e-66
1.20775e-66
1.18827e-66
1.16093e-66
1.12694e-66
1.0875e-66
1.04371e-66
9.96619e-67
9.47181e-67
8.96254e-67
8.44605e-67
7.92902e-67
7.41723e-67
6.91554e-67
6.428e-67
5.95783e-67
5.50759e-67
5.07916e-67
4.67387e-67
4.29255e-67
3.93559e-67
3.60305e-67
3.29467e-67
3.00995e-67
2.7482e-67
2.5086e-67
2.29022e-67
2.09206e-67
1.91311e-67
1.75231e-67
1.60866e-67
1.48117e-67
1.36891e-67
1.27099e-67
1.18662e-67
1.11507e-67
1.05571e-67
1.00798e-67
9.71439e-68
9.4571e-68
9.30527e-68
9.25717e-68
9.31199e-68
9.46986e-68
9.7318e-68
1.00997e-67
1.05763e-67
1.11652e-67
1.18707e-67
1.26976e-67
1.36516e-67
1.47386e-67
1.5965e-67
1.73375e-67
1.88626e-67
2.05469e-67
2.23964e-67
2.44166e-67
2.66118e-67
2.89854e-67
3.15387e-67
3.42711e-67
3.71793e-67
4.02571e-67
4.34948e-67
4.68783e-67
5.03892e-67
5.40039e-67
5.76931e-67
6.14215e-67
6.51473e-67
6.8822e-67
7.23902e-67
7.57896e-67
7.89513e-67
8.17999e-67
8.42547e-67
8.62302e-67
8.76376e-67
8.83864e-67
1.48864e-66
1.47627e-66
1.453e-66
1.4203e-66
1.37962e-66
1.33235e-66
1.27981e-66
1.22325e-66
1.1638e-66
1.10247e-66
1.04019e-66
9.77761e-67
9.15872e-67
8.55113e-67
7.95975e-67
7.38855e-67
6.84066e-67
6.31844e-67
5.82359e-67
5.35721e-67
4.91988e-67
4.51176e-67
4.13261e-67
3.78195e-67
3.45902e-67
3.16291e-67
2.89256e-67
2.64684e-67
2.42457e-67
2.22453e-67
2.04554e-67
1.88646e-67
1.74616e-67
1.62362e-67
1.5179e-67
1.42812e-67
1.35353e-67
1.29346e-67
1.24738e-67
1.21484e-67
1.19551e-67
1.18918e-67
1.19575e-67
1.21523e-67
1.24772e-67
1.29345e-67
1.35274e-67
1.426e-67
1.51372e-67
1.61648e-67
1.73492e-67
1.86973e-67
2.02166e-67
2.19146e-67
2.37989e-67
2.58768e-67
2.8155e-67
3.06396e-67
3.33352e-67
3.6245e-67
3.937e-67
4.27087e-67
4.62564e-67
5.0005e-67
5.39418e-67
5.80495e-67
6.23052e-67
6.66801e-67
7.11386e-67
7.5638e-67
8.0128e-67
8.45506e-67
8.88394e-67
9.29204e-67
9.67116e-67
1.00124e-66
1.03061e-66
1.05422e-66
1.07103e-66
1.07996e-66
1.80712e-66
1.79238e-66
1.76464e-66
1.72564e-66
1.67708e-66
1.62061e-66
1.55781e-66
1.49013e-66
1.41893e-66
1.34541e-66
1.27067e-66
1.19566e-66
1.12123e-66
1.04807e-66
9.76772e-67
9.07822e-67
8.41599e-67
7.78396e-67
7.18424e-67
6.61824e-67
6.08674e-67
5.59002e-67
5.12791e-67
4.69989e-67
4.30516e-67
3.94268e-67
3.61126e-67
3.30961e-67
3.03635e-67
2.7901e-67
2.56948e-67
2.37312e-67
2.19974e-67
2.04812e-67
1.91715e-67
1.80579e-67
1.71315e-67
1.63846e-67
1.58104e-67
1.54038e-67
1.51609e-67
1.5079e-67
1.51568e-67
1.53944e-67
1.5793e-67
1.63551e-67
1.70844e-67
1.79856e-67
1.90645e-67
2.03278e-67
2.17827e-67
2.34375e-67
2.53005e-67
2.73804e-67
2.96858e-67
3.22249e-67
3.50055e-67
3.8034e-67
4.13154e-67
4.48528e-67
4.86468e-67
5.26949e-67
5.69908e-67
6.15239e-67
6.62786e-67
7.12335e-67
7.63607e-67
8.16252e-67
8.69841e-67
9.23863e-67
9.77715e-67
1.0307e-66
1.08204e-66
1.13085e-66
1.17615e-66
1.21688e-66
1.25192e-66
1.28007e-66
1.3001e-66
1.31073e-66
2.18266e-66
2.16514e-66
2.13213e-66
2.08569e-66
2.02785e-66
1.96055e-66
1.88565e-66
1.80489e-66
1.71985e-66
1.63199e-66
1.54259e-66
1.45281e-66
1.36363e-66
1.2759e-66
1.19032e-66
1.10748e-66
1.02783e-66
9.51733e-67
8.79446e-67
8.11147e-67
7.46938e-67
6.8686e-67
6.30903e-67
5.79011e-67
5.31098e-67
4.87046e-67
4.46721e-67
4.09973e-67
3.76646e-67
3.46577e-67
3.19607e-67
2.95576e-67
2.74334e-67
2.55739e-67
2.39659e-67
2.25972e-67
2.14574e-67
2.0537e-67
1.98285e-67
1.93254e-67
1.90231e-67
1.89185e-67
1.901e-67
1.92973e-67
1.97821e-67
2.04671e-67
2.13565e-67
2.24557e-67
2.37716e-67
2.53116e-67
2.70844e-67
2.90993e-67
3.13659e-67
3.38942e-67
3.6694e-67
3.97747e-67
4.31448e-67
4.68115e-67
5.07802e-67
5.50539e-67
5.96327e-67
6.45129e-67
6.96864e-67
7.514e-67
8.08543e-67
8.68034e-67
9.29534e-67
9.92623e-67
1.05679e-66
1.12141e-66
1.18578e-66
1.24908e-66
1.31035e-66
1.36856e-66
1.42255e-66
1.47108e-66
1.5128e-66
1.5463e-66
1.57011e-66
1.58276e-66
2.62607e-66
2.60525e-66
2.56602e-66
2.5108e-66
2.44199e-66
2.3619e-66
2.27273e-66
2.17653e-66
2.07518e-66
1.97041e-66
1.86374e-66
1.75655e-66
1.65e-66
1.54511e-66
1.44272e-66
1.34352e-66
1.24807e-66
1.1568e-66
1.07002e-66
9.87955e-67
9.10734e-67
8.38412e-67
7.70985e-67
7.08396e-67
6.50547e-67
5.97308e-67
5.48524e-67
5.04023e-67
4.63625e-67
4.27141e-67
3.94383e-67
3.6517e-67
3.39322e-67
3.16674e-67
2.9707e-67
2.80369e-67
2.66447e-67
2.55192e-67
2.46514e-67
2.40338e-67
2.36608e-67
2.35287e-67
2.36354e-67
2.39808e-67
2.45664e-67
2.53955e-67
2.64728e-67
2.78048e-67
2.93991e-67
3.12645e-67
3.3411e-67
3.58492e-67
3.85904e-67
4.16458e-67
4.50268e-67
4.8744e-67
5.2807e-67
5.72238e-67
6.20003e-67
6.71395e-67
7.26408e-67
7.84993e-67
8.47046e-67
9.12404e-67
9.80832e-67
1.05202e-66
1.12555e-66
1.20093e-66
1.27754e-66
1.35465e-66
1.43141e-66
1.50684e-66
1.57983e-66
1.64913e-66
1.71338e-66
1.7711e-66
1.82069e-66
1.8605e-66
1.8888e-66
1.90381e-66
3.1501e-66
3.12538e-66
3.07878e-66
3.01318e-66
2.93141e-66
2.83621e-66
2.73017e-66
2.61572e-66
2.49511e-66
2.37037e-66
2.24333e-66
2.11559e-66
1.98855e-66
1.86341e-66
1.74119e-66
1.6227e-66
1.50862e-66
1.39946e-66
1.2956e-66
1.19731e-66
1.10476e-66
1.01801e-66
9.37064e-67
8.61868e-67
7.92311e-67
7.28243e-67
6.69487e-67
6.15847e-67
5.6711e-67
5.23059e-67
4.83477e-67
4.48147e-67
4.16863e-67
3.8943e-67
3.65665e-67
3.45403e-67
3.28496e-67
3.14815e-67
3.04251e-67
2.96717e-67
2.92145e-67
2.90492e-67
2.91732e-67
2.95862e-67
3.029e-67
3.12883e-67
3.25866e-67
3.41922e-67
3.6114e-67
3.83623e-67
4.09485e-67
4.38849e-67
4.71844e-67
5.08602e-67
5.49252e-67
5.93915e-67
6.42701e-67
6.95699e-67
7.52974e-67
8.14555e-67
8.80429e-67
9.50531e-67
1.02474e-66
1.10284e-66
1.18457e-66
1.26953e-66
1.35725e-66
1.44711e-66
1.5384e-66
1.63024e-66
1.72162e-66
1.81137e-66
1.89817e-66
1.98057e-66
2.05693e-66
2.1255e-66
2.18441e-66
2.23168e-66
2.26526e-66
2.28309e-66
3.76983e-66
3.74049e-66
3.68517e-66
3.60729e-66
3.51019e-66
3.39711e-66
3.27112e-66
3.13511e-66
2.99173e-66
2.84339e-66
2.69225e-66
2.54022e-66
2.38898e-66
2.23993e-66
2.09429e-66
1.95303e-66
1.81696e-66
1.68668e-66
1.56267e-66
1.44523e-66
1.33458e-66
1.23081e-66
1.13392e-66
1.04385e-66
9.60478e-67
8.83635e-67
8.13115e-67
7.4869e-67
6.90114e-67
6.37134e-67
5.89495e-67
5.46945e-67
5.09242e-67
4.76158e-67
4.47478e-67
4.23007e-67
4.02572e-67
3.86021e-67
3.73225e-67
3.64081e-67
3.58509e-67
3.56456e-67
3.57893e-67
3.62814e-67
3.71239e-67
3.8321e-67
3.98791e-67
4.18068e-67
4.41142e-67
4.68133e-67
4.99173e-67
5.34405e-67
5.73979e-67
6.18046e-67
6.66754e-67
7.20245e-67
7.78641e-67
8.42045e-67
9.10528e-67
9.84119e-67
1.0628e-66
1.14648e-66
1.23502e-66
1.32816e-66
1.42556e-66
1.52678e-66
1.63124e-66
1.73821e-66
1.84682e-66
1.95605e-66
2.06469e-66
2.17136e-66
2.2745e-66
2.37236e-66
2.46303e-66
2.54444e-66
2.61436e-66
2.67045e-66
2.71029e-66
2.73143e-66
4.50313e-66
4.46831e-66
4.40268e-66
4.31026e-66
4.195e-66
4.06076e-66
3.91117e-66
3.74964e-66
3.57931e-66
3.40305e-66
3.22342e-66
3.04269e-66
2.86282e-66
2.68551e-66
2.51218e-66
2.34401e-66
2.18195e-66
2.02673e-66
1.8789e-66
1.73885e-66
1.60682e-66
1.48294e-66
1.36722e-66
1.25959e-66
1.15991e-66
1.06798e-66
9.83567e-67
9.06407e-67
8.36212e-67
7.72686e-67
7.15532e-67
6.64454e-67
6.1917e-67
5.79409e-67
5.4492e-67
5.15475e-67
4.90869e-67
4.70922e-67
4.55485e-67
4.44433e-67
4.37673e-67
4.35141e-67
4.36802e-67
4.42648e-67
4.52703e-67
4.67014e-67
4.85655e-67
5.08725e-67
5.36342e-67
5.68646e-67
6.0579e-67
6.4794e-67
6.9527e-67
7.47956e-67
8.06168e-67
8.7007e-67
9.39803e-67
1.01548e-66
1.09719e-66
1.18495e-66
1.27874e-66
1.37846e-66
1.48391e-66
1.5948e-66
1.71073e-66
1.83115e-66
1.95537e-66
2.08254e-66
2.21163e-66
2.34141e-66
2.47045e-66
2.59712e-66
2.71957e-66
2.83573e-66
2.94333e-66
3.03992e-66
3.12286e-66
3.18939e-66
3.23664e-66
3.26171e-66
5.37113e-66
5.32984e-66
5.25199e-66
5.14234e-66
5.0056e-66
4.8463e-66
4.66876e-66
4.47702e-66
4.2748e-66
4.0655e-66
3.85215e-66
3.63744e-66
3.42371e-66
3.21296e-66
3.00689e-66
2.8069e-66
2.6141e-66
2.42938e-66
2.2534e-66
2.08661e-66
1.92932e-66
1.78168e-66
1.6437e-66
1.51531e-66
1.39635e-66
1.2866e-66
1.18577e-66
1.09357e-66
1.00964e-66
9.33658e-67
8.65259e-67
8.04104e-67
7.49858e-67
7.02205e-67
6.60851e-67
6.25524e-67
5.95985e-67
5.72022e-67
5.53457e-67
5.40145e-67
5.31974e-67
5.28869e-67
5.30787e-67
5.3772e-67
5.49691e-67
5.66757e-67
5.89004e-67
6.16545e-67
6.49521e-67
6.88091e-67
7.32436e-67
7.82748e-67
8.39231e-67
9.02087e-67
9.71518e-67
1.04771e-66
1.13083e-66
1.221e-66
1.31832e-66
1.42282e-66
1.53446e-66
1.65311e-66
1.77854e-66
1.91041e-66
2.04822e-66
2.19134e-66
2.33893e-66
2.48999e-66
2.64328e-66
2.79736e-66
2.95053e-66
3.10086e-66
3.24615e-66
3.38395e-66
3.51159e-66
3.62614e-66
3.72449e-66
3.80337e-66
3.85939e-66
3.88911e-66
6.3989e-66
6.34993e-66
6.2576e-66
6.12756e-66
5.96536e-66
5.77638e-66
5.56575e-66
5.33823e-66
5.09826e-66
4.84984e-66
4.59657e-66
4.34164e-66
4.08783e-66
3.83751e-66
3.59269e-66
3.35503e-66
3.12587e-66
2.90625e-66
2.69696e-66
2.49855e-66
2.31139e-66
2.13564e-66
1.97134e-66
1.81841e-66
1.67666e-66
1.54582e-66
1.42559e-66
1.31559e-66
1.21544e-66
1.12472e-66
1.04303e-66
9.6996e-67
9.05118e-67
8.48134e-67
7.98659e-67
7.56376e-67
7.21001e-67
6.92286e-67
6.70018e-67
6.54028e-67
6.44184e-67
6.40394e-67
6.42609e-67
6.50816e-67
6.65044e-67
6.85358e-67
7.11857e-67
7.44675e-67
7.83973e-67
8.29939e-67
8.82785e-67
9.42735e-67
1.01002e-66
1.08489e-66
1.16757e-66
1.25828e-66
1.35721e-66
1.46451e-66
1.58028e-66
1.70456e-66
1.83729e-66
1.97832e-66
2.12738e-66
2.28404e-66
2.44774e-66
2.61768e-66
2.79291e-66
2.97222e-66
3.15415e-66
3.33698e-66
3.5187e-66
3.69702e-66
3.86934e-66
4.03276e-66
4.1841e-66
4.31992e-66
4.43652e-66
4.53002e-66
4.59642e-66
4.63164e-66
7.61609e-66
7.55804e-66
7.44856e-66
7.29435e-66
7.10199e-66
6.87786e-66
6.62802e-66
6.35814e-66
6.07345e-66
5.7787e-66
5.47816e-66
5.1756e-66
4.87433e-66
4.57716e-66
4.28646e-66
4.00422e-66
3.73202e-66
3.47109e-66
3.22239e-66
2.98656e-66
2.76403e-66
2.55503e-66
2.35959e-66
2.17762e-66
2.00891e-66
1.85315e-66
1.70996e-66
1.57892e-66
1.45956e-66
1.35142e-66
1.25401e-66
1.16684e-66
1.08947e-66
1.02144e-66
9.62364e-67
9.11851e-67
8.69571e-67
8.3523e-67
8.08579e-67
7.89416e-67
7.77585e-67
7.72979e-67
7.75536e-67
7.85243e-67
8.02131e-67
8.26276e-67
8.57793e-67
8.96839e-67
9.43603e-67
9.98306e-67
1.06119e-66
1.13253e-66
1.21259e-66
1.30165e-66
1.39999e-66
1.50785e-66
1.62547e-66
1.75301e-66
1.89059e-66
2.03826e-66
2.19593e-66
2.36343e-66
2.54043e-66
2.72643e-66
2.92073e-66
3.12242e-66
3.33035e-66
3.54308e-66
3.7589e-66
3.97575e-66
4.19126e-66
4.40271e-66
4.60703e-66
4.80077e-66
4.98018e-66
5.14116e-66
5.27936e-66
5.39018e-66
5.46887e-66
5.51061e-66
9.05788e-66
8.98905e-66
8.85925e-66
8.6764e-66
8.44832e-66
8.18255e-66
7.88626e-66
7.56619e-66
7.22852e-66
6.87889e-66
6.52236e-66
6.1634e-66
5.80592e-66
5.45326e-66
5.10825e-66
4.77321e-66
4.45004e-66
4.14022e-66
3.84485e-66
3.56472e-66
3.30034e-66
3.05197e-66
2.81968e-66
2.60334e-66
2.40272e-66
2.21745e-66
2.0471e-66
1.89115e-66
1.74908e-66
1.62032e-66
1.5043e-66
1.40047e-66
1.30826e-66
1.22718e-66
1.15673e-66
1.09648e-66
1.04602e-66
1.00502e-66
9.7318e-67
9.50257e-67
9.3607e-67
9.3049e-67
9.33445e-67
9.44917e-67
9.64942e-67
9.93609e-67
1.03105e-66
1.07746e-66
1.13304e-66
1.19807e-66
1.27282e-66
1.35761e-66
1.45276e-66
1.55861e-66
1.67545e-66
1.80361e-66
1.94332e-66
2.0948e-66
2.25819e-66
2.43351e-66
2.62069e-66
2.8195e-66
3.02956e-66
3.25026e-66
3.48078e-66
3.72004e-66
3.96667e-66
4.21896e-66
4.47488e-66
4.732e-66
4.98751e-66
5.23819e-66
5.48038e-66
5.71002e-66
5.92266e-66
6.11345e-66
6.27723e-66
6.40855e-66
6.50179e-66
6.55125e-66
1.07659e-65
1.06843e-65
1.05304e-65
1.03137e-65
1.00432e-65
9.72812e-66
9.37681e-66
8.99727e-66
8.59684e-66
8.18219e-66
7.75934e-66
7.33356e-66
6.9095e-66
6.49112e-66
6.08177e-66
5.68421e-66
5.30068e-66
4.93295e-66
4.58232e-66
4.24973e-66
3.93579e-66
3.64082e-66
3.36489e-66
3.10787e-66
2.86947e-66
2.64928e-66
2.44677e-66
2.26135e-66
2.09239e-66
1.93922e-66
1.80118e-66
1.67761e-66
1.56785e-66
1.47131e-66
1.3874e-66
1.31562e-66
1.25549e-66
1.2066e-66
1.16861e-66
1.14123e-66
1.12425e-66
1.11751e-66
1.12093e-66
1.13448e-66
1.15821e-66
1.19221e-66
1.23666e-66
1.29176e-66
1.35777e-66
1.435e-66
1.52378e-66
1.62448e-66
1.73749e-66
1.86317e-66
2.00192e-66
2.15406e-66
2.31992e-66
2.49972e-66
2.69363e-66
2.90168e-66
3.12377e-66
3.35964e-66
3.60881e-66
3.87058e-66
4.14397e-66
4.4277e-66
4.72013e-66
5.01926e-66
5.32265e-66
5.62745e-66
5.93032e-66
6.22743e-66
6.51447e-66
6.78663e-66
7.03861e-66
7.2647e-66
7.45876e-66
7.61436e-66
7.72484e-66
7.78344e-66
1.27895e-65
1.26928e-65
1.25104e-65
1.22534e-65
1.19328e-65
1.15592e-65
1.11427e-65
1.06927e-65
1.02179e-65
9.72627e-66
9.22482e-66
8.7199e-66
8.21696e-66
7.72072e-66
7.23515e-66
6.76353e-66
6.30851e-66
5.87218e-66
5.4561e-66
5.06138e-66
4.68875e-66
4.33859e-66
4.01099e-66
3.70579e-66
3.42266e-66
3.16111e-66
2.92052e-66
2.70021e-66
2.49941e-66
2.31735e-66
2.15324e-66
2.0063e-66
1.87576e-66
1.76091e-66
1.66107e-66
1.57564e-66
1.50405e-66
1.44582e-66
1.40055e-66
1.36789e-66
1.34759e-66
1.33947e-66
1.34342e-66
1.35943e-66
1.38753e-66
1.42785e-66
1.48057e-66
1.54595e-66
1.62429e-66
1.71595e-66
1.82132e-66
1.94085e-66
2.07496e-66
2.22413e-66
2.38877e-66
2.56931e-66
2.7661e-66
2.97942e-66
3.20944e-66
3.45622e-66
3.71963e-66
3.99936e-66
4.29483e-66
4.60522e-66
4.92936e-66
5.26573e-66
5.61239e-66
5.96696e-66
6.32657e-66
6.68782e-66
7.04676e-66
7.39885e-66
7.739e-66
8.06149e-66
8.36007e-66
8.62796e-66
8.85789e-66
9.04224e-66
9.17313e-66
9.24255e-66
1.51872e-65
1.50725e-65
1.48563e-65
1.45517e-65
1.41717e-65
1.37288e-65
1.32351e-65
1.27016e-65
1.21387e-65
1.15557e-65
1.09612e-65
1.03625e-65
9.76607e-66
9.17759e-66
8.60172e-66
8.04235e-66
7.50264e-66
6.98505e-66
6.49144e-66
6.02313e-66
5.58099e-66
5.16545e-66
4.77664e-66
4.41438e-66
4.07828e-66
3.76775e-66
3.48207e-66
3.22043e-66
2.98193e-66
2.76566e-66
2.57067e-66
2.39606e-66
2.24091e-66
2.10438e-66
1.98568e-66
1.88408e-66
1.79891e-66
1.72962e-66
1.67572e-66
1.6368e-66
1.61257e-66
1.6028e-66
1.60739e-66
1.62628e-66
1.65955e-66
1.70732e-66
1.76983e-66
1.84737e-66
1.94029e-66
2.04902e-66
2.17403e-66
2.31582e-66
2.47492e-66
2.65186e-66
2.84716e-66
3.0613e-66
3.2947e-66
3.54768e-66
3.82046e-66
4.11308e-66
4.42541e-66
4.75705e-66
5.10734e-66
5.47528e-66
5.85951e-66
6.2582e-66
6.66906e-66
7.08928e-66
7.51545e-66
7.94355e-66
8.36888e-66
8.7861e-66
9.18913e-66
9.57124e-66
9.925e-66
1.02424e-65
1.05148e-65
1.07332e-65
1.08883e-65
1.09705e-65
1.80282e-65
1.78924e-65
1.76361e-65
1.7275e-65
1.68245e-65
1.62996e-65
1.57143e-65
1.50818e-65
1.44145e-65
1.37234e-65
1.30186e-65
1.23087e-65
1.16016e-65
1.09038e-65
1.0221e-65
9.55765e-66
8.91759e-66
8.30373e-66
7.71827e-66
7.16278e-66
6.63827e-66
6.1453e-66
5.68398e-66
5.25414e-66
4.85528e-66
4.48674e-66
4.14765e-66
3.83706e-66
3.55391e-66
3.29711e-66
3.06556e-66
2.85817e-66
2.67388e-66
2.51167e-66
2.37062e-66
2.24987e-66
2.14863e-66
2.06623e-66
2.0021e-66
1.95576e-66
1.92686e-66
1.91514e-66
1.92045e-66
1.94276e-66
1.98213e-66
2.03873e-66
2.11281e-66
2.20473e-66
2.3149e-66
2.44384e-66
2.59207e-66
2.76022e-66
2.94888e-66
3.1587e-66
3.39028e-66
3.64419e-66
3.92092e-66
4.22085e-66
4.54424e-66
4.89114e-66
5.26137e-66
5.65448e-66
6.06967e-66
6.50576e-66
6.96112e-66
7.43361e-66
7.92051e-66
8.41847e-66
8.92345e-66
9.4307e-66
9.93467e-66
1.0429e-65
1.09065e-65
1.13592e-65
1.17783e-65
1.21543e-65
1.2477e-65
1.27358e-65
1.29195e-65
1.30169e-65
2.13948e-65
2.12337e-65
2.093e-65
2.0502e-65
1.99681e-65
1.93458e-65
1.8652e-65
1.79023e-65
1.71113e-65
1.6292e-65
1.54564e-65
1.46149e-65
1.37766e-65
1.29493e-65
1.21397e-65
1.13532e-65
1.05943e-65
9.86633e-66
9.17204e-66
8.51326e-66
7.89118e-66
7.30646e-66
6.75925e-66
6.24933e-66
5.77614e-66
5.33887e-66
4.93651e-66
4.56793e-66
4.23189e-66
3.92708e-66
3.65222e-66
3.40601e-66
3.18719e-66
2.99457e-66
2.82705e-66
2.6836e-66
2.56331e-66
2.46538e-66
2.38913e-66
2.334e-66
2.29956e-66
2.28551e-66
2.29168e-66
2.31803e-66
2.36461e-66
2.43164e-66
2.51942e-66
2.62835e-66
2.75894e-66
2.91177e-66
3.0875e-66
3.28683e-66
3.5105e-66
3.75923e-66
4.03376e-66
4.33474e-66
4.66277e-66
5.0183e-66
5.40161e-66
5.81276e-66
6.25155e-66
6.71744e-66
7.20948e-66
7.72627e-66
8.26587e-66
8.82574e-66
9.40267e-66
9.99269e-66
1.0591e-65
1.1192e-65
1.17891e-65
1.23747e-65
1.29405e-65
1.34768e-65
1.39733e-65
1.44187e-65
1.4801e-65
1.51075e-65
1.53251e-65
1.54405e-65
2.53841e-65
2.51932e-65
2.48332e-65
2.43259e-65
2.36931e-65
2.29555e-65
2.21332e-65
2.12446e-65
2.03069e-65
1.93358e-65
1.83453e-65
1.73477e-65
1.63539e-65
1.53732e-65
1.44134e-65
1.34809e-65
1.25811e-65
1.1718e-65
1.08948e-65
1.01136e-65
9.37592e-66
8.6825e-66
8.03353e-66
7.42874e-66
6.86747e-66
6.34878e-66
5.87147e-66
5.43419e-66
5.03547e-66
4.6738e-66
4.34763e-66
4.05542e-66
3.79569e-66
3.56705e-66
3.36816e-66
3.19783e-66
3.05497e-66
2.93864e-66
2.84802e-66
2.78246e-66
2.74145e-66
2.72464e-66
2.73181e-66
2.76291e-66
2.81803e-66
2.8974e-66
3.00137e-66
3.13044e-66
3.28519e-66
3.46631e-66
3.67459e-66
3.91084e-66
4.17593e-66
4.47074e-66
4.79611e-66
5.15283e-66
5.5416e-66
5.96294e-66
6.4172e-66
6.90444e-66
7.42441e-66
7.97648e-66
8.55951e-66
9.17186e-66
9.81122e-66
1.04746e-65
1.11581e-65
1.18572e-65
1.2566e-65
1.3278e-65
1.39854e-65
1.46792e-65
1.53494e-65
1.59847e-65
1.65729e-65
1.71006e-65
1.75534e-65
1.79165e-65
1.81743e-65
1.8311e-65
3.01115e-65
2.98853e-65
2.94586e-65
2.88574e-65
2.81073e-65
2.72331e-65
2.62584e-65
2.52052e-65
2.40938e-65
2.29427e-65
2.17686e-65
2.05861e-65
1.94081e-65
1.82455e-65
1.71077e-65
1.60023e-65
1.49355e-65
1.39123e-65
1.29363e-65
1.20101e-65
1.11354e-65
1.03132e-65
9.54365e-66
8.82645e-66
8.16083e-66
7.54567e-66
6.97955e-66
6.46087e-66
5.98791e-66
5.55886e-66
5.17189e-66
4.82518e-66
4.517e-66
4.24566e-66
4.00961e-66
3.80743e-66
3.63782e-66
3.49968e-66
3.39203e-66
3.31411e-66
3.26531e-66
3.2452e-66
3.25354e-66
3.29026e-66
3.35547e-66
3.44944e-66
3.57258e-66
3.72548e-66
3.90883e-66
4.12344e-66
4.37024e-66
4.6502e-66
4.96434e-66
5.31369e-66
5.69926e-66
6.12199e-66
6.58267e-66
7.08194e-66
7.62021e-66
8.19755e-66
8.81366e-66
9.46777e-66
1.01586e-65
1.08841e-65
1.16416e-65
1.24275e-65
1.32373e-65
1.40655e-65
1.49052e-65
1.57487e-65
1.65867e-65
1.74086e-65
1.82025e-65
1.89551e-65
1.96518e-65
2.02769e-65
2.08133e-65
2.12434e-65
2.15488e-65
2.17107e-65
3.57137e-65
3.54455e-65
3.49398e-65
3.42273e-65
3.33383e-65
3.23022e-65
3.11469e-65
2.98986e-65
2.85813e-65
2.7217e-65
2.58253e-65
2.44237e-65
2.30274e-65
2.16493e-65
2.03005e-65
1.89902e-65
1.77256e-65
1.65126e-65
1.53556e-65
1.42575e-65
1.32205e-65
1.22457e-65
1.13333e-65
1.04829e-65
9.69361e-66
8.96413e-66
8.29279e-66
7.67767e-66
7.11674e-66
6.60785e-66
6.14884e-66
5.73757e-66
5.37196e-66
5.05003e-66
4.76995e-66
4.53002e-66
4.32872e-66
4.16472e-66
4.03689e-66
3.94431e-66
3.88625e-66
3.86223e-66
3.87194e-66
3.91531e-66
3.99245e-66
4.10369e-66
4.24952e-66
4.43062e-66
4.64782e-66
4.90209e-66
5.19449e-66
5.52619e-66
5.89841e-66
6.31235e-66
6.7692e-66
7.27007e-66
7.81591e-66
8.40747e-66
9.04522e-66
9.72925e-66
1.04592e-65
1.12342e-65
1.20526e-65
1.29121e-65
1.38095e-65
1.47406e-65
1.56999e-65
1.6681e-65
1.76758e-65
1.8675e-65
1.96676e-65
2.06413e-65
2.15817e-65
2.24732e-65
2.32985e-65
2.40389e-65
2.46743e-65
2.51838e-65
2.55455e-65
2.57373e-65
4.23525e-65
4.20347e-65
4.14353e-65
4.05908e-65
3.95372e-65
3.83092e-65
3.694e-65
3.54605e-65
3.38992e-65
3.22822e-65
3.06327e-65
2.89714e-65
2.73163e-65
2.56829e-65
2.40842e-65
2.2531e-65
2.1032e-65
1.95942e-65
1.82225e-65
1.69209e-65
1.56916e-65
1.45359e-65
1.34541e-65
1.24459e-65
1.15101e-65
1.06452e-65
9.84916e-66
9.11976e-66
8.45459e-66
7.85109e-66
7.30673e-66
6.81894e-66
6.38529e-66
6.00342e-66
5.67116e-66
5.38649e-66
5.14762e-66
4.95298e-66
4.80123e-66
4.69126e-66
4.62223e-66
4.59355e-66
4.60486e-66
4.65608e-66
4.74733e-66
4.87901e-66
5.05169e-66
5.26618e-66
5.52346e-66
5.82466e-66
6.17107e-66
6.56404e-66
7.00501e-66
7.49543e-66
8.03669e-66
8.63009e-66
9.27678e-66
9.97762e-66
1.07332e-65
1.15436e-65
1.24083e-65
1.33264e-65
1.4296e-65
1.53142e-65
1.63773e-65
1.74802e-65
1.86167e-65
1.97788e-65
2.09573e-65
2.21409e-65
2.33167e-65
2.447e-65
2.5584e-65
2.664e-65
2.76176e-65
2.84946e-65
2.92473e-65
2.98507e-65
3.02791e-65
3.05063e-65
5.02198e-65
4.98432e-65
4.91328e-65
4.81319e-65
4.68832e-65
4.54279e-65
4.38051e-65
4.20516e-65
4.02012e-65
3.82847e-65
3.63297e-65
3.43607e-65
3.2399e-65
3.0463e-65
2.85681e-65
2.67271e-65
2.49503e-65
2.3246e-65
2.16201e-65
2.00771e-65
1.86199e-65
1.72499e-65
1.59675e-65
1.47723e-65
1.36629e-65
1.26374e-65
1.16936e-65
1.08288e-65
1.00401e-65
9.32454e-66
8.67902e-66
8.10057e-66
7.58628e-66
7.13338e-66
6.73927e-66
6.40159e-66
6.1182e-66
5.88724e-66
5.70712e-66
5.57653e-66
5.49448e-66
5.46026e-66
5.47345e-66
5.53394e-66
5.64189e-66
5.79775e-66
6.00222e-66
6.25623e-66
6.56095e-66
6.91773e-66
7.32807e-66
7.79359e-66
8.31598e-66
8.89696e-66
9.53817e-66
1.02412e-65
1.10073e-65
1.18375e-65
1.27326e-65
1.36926e-65
1.4717e-65
1.58046e-65
1.69532e-65
1.81593e-65
1.94187e-65
2.07252e-65
2.20714e-65
2.3448e-65
2.48439e-65
2.62459e-65
2.76388e-65
2.90048e-65
3.03243e-65
3.15752e-65
3.27331e-65
3.37719e-65
3.46635e-65
3.53782e-65
3.58857e-65
3.61548e-65
5.9543e-65
5.90966e-65
5.82547e-65
5.70686e-65
5.55887e-65
5.38639e-65
5.19406e-65
4.98624e-65
4.76694e-65
4.53979e-65
4.30809e-65
4.07473e-65
3.84223e-65
3.61277e-65
3.38817e-65
3.16997e-65
2.95937e-65
2.75736e-65
2.56464e-65
2.38175e-65
2.20902e-65
2.04662e-65
1.89461e-65
1.75292e-65
1.62141e-65
1.49985e-65
1.38796e-65
1.28543e-65
1.19192e-65
1.10708e-65
1.03054e-65
9.6195e-66
9.00965e-66
8.47256e-66
8.00516e-66
7.60465e-66
7.26849e-66
6.99448e-66
6.78072e-66
6.62569e-66
6.52819e-66
6.48737e-66
6.50276e-66
6.5742e-66
6.70191e-66
6.88639e-66
7.12847e-66
7.42928e-66
7.79017e-66
8.21275e-66
8.6988e-66
9.25022e-66
9.86903e-66
1.05572e-65
1.13168e-65
1.21496e-65
1.30571e-65
1.40406e-65
1.51009e-65
1.62381e-65
1.74516e-65
1.874e-65
2.01005e-65
2.15293e-65
2.3021e-65
2.45686e-65