/*--------------------------------*- C++ -*----------------------------------*\
  =========                 |
  \\      /  F ield         | OpenFOAM: The Open Source CFD Toolbox
   \\    /   O peration     | Website:  https://openfoam.org
    \\  /    A nd           | Version:  11
     \\/     M anipulation  |
\*---------------------------------------------------------------------------*/
FoamFile
{
    format      ascii;
    class       volScalarField;
    location    "100";
    object      C;
}
// * * * * * * * * * * * * * * * * * * * * * * * * * * * * * * * * * * * * * //

dimensions      [0 0 0 1 0 0 0];

internalField   nonuniform List<scalar> 
427520
(
-2.32245e-311
-2.86408e-311
2.43018e-311
-1.18367e-311
-3.31571e-311
-4.89441e-311
-1.62634e-311
-1.26976e-311
-2.97196e-311
9.38349e-312
-4.81919e-312
-3.50919e-312
-4.20814e-311
-4.38248e-311
-1.03821e-311
1.0668e-311
1.31518e-311
1.18841e-311
-8.54008e-312
-6.04174e-311
4.45864e-311
3.33547e-311
4.54792e-311
1.76393e-312
-3.22119e-311
-8.3844e-311
-7.42692e-311
-2.37908e-311
-1.36011e-311
-5.16851e-311
1.20976e-312
1.26406e-311
5.60575e-311
2.99459e-312
-9.91566e-312
2.02739e-311
9.33995e-314
9.26299e-312
3.32159e-311
3.74916e-311
-1.81949e-311
4.66898e-311
1.01362e-311
1.22931e-311
1.41345e-311
1.24658e-311
5.6429e-311
8.88736e-312
-1.8286e-312
-1.21779e-311
-1.94006e-311
-4.6528e-311
3.50852e-311
-3.53466e-311
-2.16811e-312
5.54166e-312
-1.34029e-311
-3.10484e-311
-1.9182e-313
1.10057e-312
-1.0551e-311
3.57013e-312
-3.58015e-312
-1.34274e-312
1.49735e-312
4.22044e-311
-2.32764e-311
2.10395e-312
5.0191e-311
2.00936e-315
2.57775e-312
1.83013e-312
5.35094e-311
3.89135e-311
-2.35528e-311
1.65228e-311
3.79931e-311
1.84007e-311
2.92746e-311
-4.37809e-311
-6.9573e-311
-2.89535e-311
-1.9151e-311
1.84871e-311
-2.05282e-311
-3.43388e-311
-2.13903e-311
-2.90874e-311
-3.18984e-311
-2.41852e-311
2.05553e-311
4.76565e-311
-9.08426e-312
-6.53164e-311
-7.8632e-311
-3.78354e-311
2.80299e-311
3.0006e-311
4.30428e-311
-6.24597e-312
4.31949e-311
3.49298e-311
8.79647e-313
3.4398e-311
7.70506e-312
1.21064e-311
-1.04579e-310
-6.34809e-311
-2.79899e-311
1.81127e-311
-4.79943e-311
5.58577e-311
6.53691e-311
3.48036e-311
-6.36884e-312
-6.51274e-312
-3.6707e-311
-2.85098e-311
4.60191e-311
4.72501e-311
1.68448e-311
5.14656e-311
8.34044e-311
7.45653e-311
5.12208e-311
7.21369e-312
5.95575e-311
2.42134e-311
-3.45623e-311
8.62999e-313
5.70796e-311
1.32135e-311
2.21069e-311
1.06169e-311
1.41998e-311
5.50613e-311
8.2403e-312
-4.44805e-312
-3.1587e-311
1.64383e-311
-3.54956e-311
-2.99713e-311
-3.22542e-311
-1.57993e-312
-5.98534e-312
3.04667e-313
2.18069e-311
5.28918e-311
3.6455e-311
-4.5967e-312
2.57064e-313
-1.8973e-311
1.96741e-311
2.45769e-311
4.44752e-313
3.31657e-311
4.63296e-311
9.15036e-311
4.16642e-311
-1.77569e-311
-2.9152e-311
-1.01967e-310
-7.39486e-311
-7.52753e-311
-6.77073e-311
-5.16191e-311
-7.14821e-312
-6.16992e-312
-1.18102e-312
-3.83107e-311
-3.556e-311
2.32797e-311
8.64494e-312
-9.05709e-312
-1.08016e-310
-7.54634e-311
-2.67707e-311
-1.49744e-311
-1.46394e-311
-8.0996e-312
5.06693e-311
9.54802e-312
-3.60494e-311
-1.72833e-311
-1.21894e-311
2.301e-311
-3.45841e-311
-2.73544e-311
-5.09293e-311
3.64562e-311
2.19359e-311
2.16123e-311
3.87363e-311
1.72581e-311
1.67548e-311
6.80469e-311
-1.29069e-311
-7.1161e-312
5.59496e-311
8.65565e-311
2.62965e-311
8.62404e-311
4.78992e-311
2.69822e-311
1.36546e-311
-2.04851e-311
1.2761e-311
-8.85731e-312
-2.25711e-311
3.14431e-311
1.14406e-310
1.33875e-310
3.26749e-311
-7.25071e-312
-8.7962e-312
4.77731e-311
1.02216e-311
-6.18325e-311
-1.95701e-311
-2.5615e-311
-2.13503e-311
-2.68424e-311
-4.04368e-311
2.84967e-312
2.60754e-311
9.77249e-312
1.34752e-312
-2.17782e-311
1.85506e-311
-2.35192e-311
-7.71835e-312
-1.79448e-311
1.41694e-311
-1.41674e-311
-2.81012e-311
1.09481e-311
2.72591e-311
7.33922e-311
7.8092e-311
1.82714e-310
-2.49281e-310
-1.12624e-310
-1.07942e-310
-1.43531e-310
-1.42548e-310
-8.47592e-311
-4.69595e-311
-1.6399e-311
1.32508e-311
8.00372e-312
-5.9321e-311
-2.37655e-311
-5.48841e-311
-7.02424e-311
-1.51335e-310
-1.25178e-310
-6.08692e-311
-3.77487e-311
2.23807e-311
1.22782e-311
5.23503e-311
3.796e-311
-9.96506e-312
4.87071e-311
2.41391e-311
4.56183e-311
-3.47172e-311
-8.06741e-311
-8.07298e-311
7.55987e-312
5.02553e-311
4.81397e-311
-5.02331e-311
4.60596e-312
-3.78388e-311
5.72497e-311
-6.32386e-312
-3.67816e-311
6.43103e-311
5.54946e-311
8.2341e-311
2.1859e-311
-1.88005e-311
1.35797e-311
2.84143e-311
1.02716e-312
2.08581e-312
5.00116e-312
4.70832e-311
9.56783e-311
7.15371e-311
3.00376e-311
-7.36157e-311
-1.66969e-311
-5.20587e-311
3.53146e-311
-1.10638e-311
-8.8719e-311
-3.49218e-311
-2.15437e-311
-8.8434e-312
3.62558e-311
1.90151e-311
8.64308e-311
7.01288e-311
-2.40854e-312
-9.0091e-311
-6.16839e-311
4.71784e-311
4.47356e-311
-9.4821e-312
-3.41114e-311
-6.17713e-312
-2.23808e-311
-1.24108e-311
5.11952e-311
1.09875e-310
3.74289e-311
-1.99918e-311
3.14305e-312
-3.75576e-310
-2.19317e-310
-1.75673e-310
-1.62199e-310
-1.32759e-310
-9.75237e-311
-9.47431e-311
-5.9103e-311
2.54832e-311
-1.52886e-311
-7.83406e-311
-1.98821e-311
-5.29459e-312
-1.04173e-310
-1.08754e-310
-1.24744e-310
-1.84897e-311
-4.72218e-311
-1.21329e-311
-2.95738e-311
3.47639e-311
4.57525e-311
2.43286e-311
8.78916e-312
8.3407e-311
5.17783e-311
-5.84349e-311
-6.07592e-311
-3.23128e-311
-3.79713e-311
9.00155e-312
3.00665e-311
-6.6952e-311
-4.86114e-311
-7.45176e-311
6.65707e-311
3.93342e-311
4.6362e-312
2.82436e-311
5.98822e-311
9.25791e-311
1.15341e-310
2.40117e-312
3.60726e-311
6.72811e-311
3.9701e-311
-1.82144e-311
-1.29635e-311
-2.38763e-311
7.21391e-311
4.36581e-311
4.71063e-311
-3.17133e-311
-3.63231e-311
-1.16235e-311
3.35443e-311
1.43348e-311
-7.97285e-311
-4.09339e-311
-2.6532e-311
-4.77316e-311
-4.18177e-311
-1.12081e-311
4.03887e-311
5.06765e-311
-5.75923e-311
-1.20087e-310
-5.58419e-311
2.97631e-312
1.557e-311
-2.82042e-311
-7.98341e-311
-9.27456e-311
-6.22693e-311
1.24466e-311
1.41172e-310
1.38166e-310
9.80211e-311
-1.14006e-311
1.01082e-311
-3.31751e-310
-1.70416e-310
-1.27646e-310
-1.70127e-310
-1.11861e-310
-1.74933e-310
-2.21306e-310
-8.56363e-311
1.9179e-311
1.77416e-311
-1.39534e-311
2.4029e-311
6.03377e-311
-8.48186e-311
-1.09285e-310
-1.00464e-310
-1.30799e-310
-4.31261e-311
-5.18467e-312
-2.52428e-311
1.32405e-311
7.84985e-311
2.09992e-311
2.95255e-311
8.84451e-311
6.82685e-311
8.41024e-311
8.09003e-312
-3.51277e-311
-4.22684e-311
1.04858e-311
7.10416e-311
1.69049e-311
1.63034e-311
1.1637e-311
1.37664e-311
3.66505e-311
4.22517e-312
5.57384e-311
7.1263e-311
1.22292e-310
2.00153e-311
6.97561e-312
4.58316e-311
1.66713e-310
8.44516e-311
-6.31786e-311
-3.09454e-311
3.92932e-312
5.77532e-311
8.91154e-311
3.2616e-311
-4.09143e-311
-2.04085e-311
3.29545e-311
3.83126e-311
5.28712e-312
-7.27215e-311
-2.94245e-311
-5.16968e-311
-9.72484e-311
-1.03363e-310
3.84568e-312
5.92805e-311
6.07095e-311
-3.5164e-311
-6.58385e-311
-6.01055e-311
-6.53188e-311
-3.52475e-311
-5.46821e-311
-1.03851e-310
-9.57556e-311
-2.80316e-311
8.06137e-311
1.83197e-310
1.81658e-310
7.61896e-311
-4.2159e-311
-4.38628e-311
-4.17135e-311
-1.87487e-310
-7.21726e-311
-5.96682e-311
-7.95764e-311
-1.02063e-310
-1.03563e-310
-3.38256e-311
7.33968e-311
5.49589e-311
3.41177e-311
5.40718e-311
5.72595e-312
1.18568e-311
-2.82209e-311
-5.84246e-311
-1.15469e-310
-7.65079e-311
3.81382e-311
6.74406e-311
5.14296e-311
1.22176e-310
7.12136e-311
1.72298e-311
2.80161e-311
1.52722e-311
4.01609e-311
4.63365e-311
-6.72426e-311
-1.84349e-311
-1.92155e-311
8.2431e-312
2.97088e-311
7.00265e-311
-2.68177e-311
-1.13772e-311
-2.02803e-312
2.24124e-311
8.65931e-311
5.51648e-311
3.80069e-311
3.81414e-311
-3.37594e-311
1.14399e-311
1.20627e-310
5.32969e-311
-5.89719e-311
-3.18943e-311
1.45555e-311
3.48422e-311
2.65611e-311
2.53899e-311
-2.80184e-311
3.39032e-312
5.99002e-311
4.49139e-311
4.51603e-312
-3.96463e-311
-4.54505e-311
-3.81565e-311
-6.50204e-311
-5.92641e-311
1.91639e-311
4.38447e-311
3.68e-311
-4.57178e-311
-4.08683e-311
-2.52645e-311
-3.71752e-311
-5.22206e-311
-1.44267e-310
-1.58316e-310
-9.3876e-311
1.69626e-311
1.24044e-310
2.49204e-310
2.38544e-310
1.2261e-311
-8.8327e-311
-4.65732e-311
-3.7176e-310
-3.63695e-310
-2.28731e-310
-1.39129e-310
-1.10431e-310
-1.45958e-310
-4.4562e-311
4.46119e-311
5.70965e-311
5.57123e-311
-1.70567e-311
5.66109e-311
6.83559e-311
5.22306e-311
1.12674e-311
-1.01505e-310
-1.62221e-310
-6.58737e-311
4.60185e-312
1.08818e-311
1.67367e-311
7.14008e-311
7.29507e-311
-1.01767e-311
-1.48461e-311
-2.51362e-311
2.36033e-311
-2.9159e-311
-1.04185e-310
-8.26687e-311
-3.69331e-311
-3.92926e-311
4.23002e-311
6.71744e-311
-2.91784e-311
-2.52903e-311
-4.23529e-311
-3.67288e-311
5.87274e-311
1.27242e-310
6.09904e-311
7.78224e-311
-5.36322e-311
-1.956e-311
6.5098e-311
2.72998e-312
-5.1347e-311
-7.28109e-311
-7.34087e-311
1.0978e-311
2.64756e-311
7.15548e-312
1.9104e-312
-2.74579e-311
3.5631e-312
4.83501e-311
3.31255e-312
4.75799e-312
-2.65041e-311
-5.92316e-311
-4.9933e-311
-4.20498e-311
-4.59416e-313
2.30053e-312
-7.91647e-312
-6.19989e-311
-9.70432e-311
-7.91952e-311
-1.65956e-311
-1.45797e-310
-1.66743e-310
-7.42296e-311
4.1489e-312
5.87981e-311
1.61947e-310
2.97793e-310
2.3476e-310
-7.06885e-311
-1.11055e-310
-1.43248e-311
-6.08034e-310
-4.07021e-310
-2.2283e-310
-2.02441e-310
-1.87265e-310
-1.94896e-310
-5.09458e-311
-2.22259e-311
3.67441e-311
1.12024e-310
4.20011e-311
6.47671e-311
1.43936e-310
1.20801e-310
7.04195e-312
-6.48548e-311
-1.33811e-310
-4.40378e-311
1.46552e-313
5.86951e-311
4.64973e-311
1.12701e-310
9.5326e-311
4.09367e-311
4.64514e-311
6.50533e-312
-6.15221e-312
-5.37245e-311
-1.39776e-310
-8.29821e-311
-5.1942e-311
-3.42482e-311
2.24336e-311
-5.2298e-313
-9.4329e-311
2.45633e-311
-9.43857e-311
-5.43683e-311
4.77564e-311
6.15224e-311
4.86356e-311
6.65134e-311
-6.62637e-311
-2.81049e-311
-3.3332e-311
8.02313e-312
-6.65475e-311
-7.09613e-311
-1.1921e-310
-4.24631e-311
6.32091e-311
3.60135e-311
1.84615e-311
4.50496e-311
4.31159e-311
7.34958e-311
5.87289e-311
4.1113e-311
-1.33376e-311
-7.99769e-311
-9.16767e-311
-8.79784e-311
-2.71238e-311
8.48808e-312
-5.67902e-311
-8.04432e-311
-6.70121e-311
-1.14547e-310
-9.49102e-311
-1.97335e-310
-1.67693e-310
-2.238e-311
-4.42021e-311
2.6622e-311
1.63394e-310
2.78184e-310
3.48054e-310
1.73258e-310
-3.03628e-311
1.08133e-311
-6.15909e-310
-4.61953e-310
-3.25696e-310
-2.2414e-310
-1.43733e-310
-1.05854e-310
-1.04683e-310
-9.64656e-311
-7.07004e-312
8.52775e-311
1.07362e-310
1.57003e-310
1.47535e-310
6.60677e-311
-2.88113e-311
-1.11929e-310
-1.40815e-310
-2.79595e-311
1.36942e-311
5.74793e-311
1.14216e-310
7.89763e-311
7.1613e-311
6.9039e-311
2.95175e-311
1.38346e-311
-2.2628e-311
-8.6841e-312
-5.24429e-311
-7.10812e-311
-4.2117e-311
-1.0401e-310
-6.64913e-311
-2.4719e-311
-8.00063e-311
4.56221e-311
-4.83964e-311
3.26443e-312
6.85611e-311
8.94019e-311
2.80456e-311
7.30977e-311
1.24157e-311
5.63458e-312
-1.02992e-310
9.0611e-312
3.21543e-311
-4.4787e-311
-1.04641e-310
-3.73453e-311
1.87037e-311
-3.12952e-311
-2.08974e-311
6.49039e-312
1.52823e-311
3.97812e-311
6.07826e-312
-1.44815e-311
-8.59423e-311
-1.19747e-310
-1.56645e-310
-1.05377e-310
-2.97166e-311
-2.74266e-312
-1.04672e-310
-5.4667e-311
-7.86245e-311
-1.49301e-310
-1.3577e-310
-2.10617e-310
-1.43987e-310
-5.26193e-311
-3.65937e-311
5.88238e-311
1.16888e-310
2.37345e-310
2.48473e-310
1.44019e-310
-5.0561e-311
-7.12609e-311
-4.03365e-310
-5.20602e-310
-3.89599e-310
-3.93543e-310
-2.36742e-310
-2.65461e-310
-1.53025e-310
-1.07914e-310
-7.58468e-311
-2.17038e-311
-8.80333e-313
7.04825e-311
1.15251e-310
5.62772e-311
-2.17613e-311
-7.52399e-311
-1.40012e-310
-4.30864e-311
9.68628e-312
7.5596e-311
1.48048e-310
9.9892e-311
7.56453e-311
1.08415e-312
-1.02393e-311
8.13926e-311
4.4413e-312
1.44064e-311
-7.42199e-312
-8.24544e-312
-6.65879e-311
-1.68062e-310
-9.03098e-311
2.94855e-312
-4.659e-311
5.75348e-311
-4.7534e-311
-2.9246e-311
8.5165e-311
7.57524e-311
3.37949e-311
2.83399e-311
8.31859e-311
6.03003e-311
-6.50666e-311
3.16569e-311
8.42555e-312
-3.25804e-311
-7.06892e-311
-6.60231e-311
-1.24662e-312
-4.26383e-311
-4.38166e-311
3.9159e-311
4.29153e-311
-1.18637e-311
-2.42015e-311
-1.01275e-310
-1.42306e-310
-1.10542e-310
-1.35622e-310
-7.57856e-311
-7.90472e-311
-4.15443e-311
-1.71168e-310
-5.64269e-311
-8.40943e-311
-1.28505e-310
-1.56884e-310
-2.21514e-310
-2.49954e-310
-1.48907e-310
-1.34035e-310
-1.20897e-311
3.29854e-311
1.665e-310
1.02343e-310
-7.42335e-311
-2.87867e-310
-3.37798e-310
-1.99212e-311
-2.85849e-311
-2.55212e-310
-2.40164e-310
-2.45246e-310
-2.08214e-310
-1.83749e-310
-1.26349e-310
-1.03866e-310
-1.06999e-310
-8.94374e-311
-6.56094e-311
9.69314e-311
7.18012e-311
2.3944e-311
-5.92881e-311
-1.26945e-310
-3.95794e-311
-5.19361e-312
3.7078e-311
1.45924e-310
1.34054e-310
1.00127e-310
2.77375e-311
4.72314e-311
6.84837e-311
3.38452e-311
4.4758e-311
-1.70887e-311
-2.64296e-311
-5.07457e-311
-2.44284e-310
-1.39832e-310
9.79332e-313
-7.94423e-311
5.18568e-311
-2.27217e-311
-1.16385e-310
-8.01365e-312
6.10784e-311
2.71429e-311
1.06568e-311
-1.24377e-312
-1.5612e-311
-6.74547e-311
-3.95622e-311
-1.07796e-311
2.17835e-311
-2.96518e-311
-1.15041e-311
-4.3993e-311
-9.41737e-312
-1.12213e-311
3.17639e-313
-4.79568e-311
-7.14132e-311
-2.85251e-311
-1.32112e-310
-1.22658e-310
-1.33921e-310
-8.88262e-311
-5.7981e-311
-4.04108e-311
-9.67059e-312
-1.14133e-310
-6.66443e-311
-1.12411e-310
-1.75437e-310
-1.84987e-310
-1.35781e-310
-1.95457e-310
-2.10982e-310
-1.47323e-310
-5.26119e-311
-4.64797e-311
1.04586e-311
8.21634e-311
-8.29086e-311
-8.19252e-311
-6.50546e-311
-5.34877e-312
1.05558e-310
-1.29073e-310
-1.37107e-310
-1.54724e-310
-2.08367e-310
-8.31191e-311
-1.39154e-310
-1.38115e-310
-8.35276e-311
-7.06695e-311
4.39103e-311
1.37119e-310
8.91771e-311
3.79167e-311
-4.87603e-311
-9.88346e-311
-1.32727e-310
-7.26198e-311
8.0196e-312
9.99193e-311
1.66707e-310
9.92127e-311
3.5145e-311
6.88292e-311
5.42416e-311
1.01553e-310
9.36598e-311
6.925e-312
1.48657e-311
-3.7677e-311
-2.76195e-310
-1.95155e-310
-1.90733e-311
-6.40431e-311
-4.02668e-311
-4.03529e-311
-8.28258e-311
8.48129e-313
4.56253e-311
-5.0669e-311
-3.98018e-313
-2.79112e-311
-3.37997e-311
-5.2917e-311
-8.52389e-312
1.53979e-311
8.27778e-311
-2.81423e-311
-1.82607e-311
-4.27422e-311
3.48834e-311
5.91686e-311
-1.9146e-311
-3.61809e-311
-2.42589e-311
3.14246e-311
-9.06695e-311
-1.27809e-310
-1.5734e-310
-4.56018e-311
-3.79101e-311
-4.71153e-311
-4.71474e-311
-9.64736e-311
-9.4572e-311
-1.3791e-310
-2.16773e-310
-1.55399e-310
-1.84993e-310
-2.22978e-310
-2.23823e-310
-2.48951e-310
-1.41101e-310
-5.51103e-312
4.31687e-311
6.28124e-311
-4.8472e-311
-2.49068e-311
8.22069e-311
1.93199e-310
2.89568e-310
1.28974e-310
-6.32918e-311
-2.46382e-310
-2.58416e-310
-1.05989e-310
-2.4957e-311
-9.76605e-311
-8.13408e-311
-1.17493e-310
6.10841e-311
6.87147e-311
3.42939e-311
1.89767e-311
-1.18425e-310
-1.00355e-310
-9.27297e-311
-9.06735e-311
-7.40646e-312
1.94805e-311
1.08328e-310
6.71727e-311
6.79605e-311
1.04076e-310
4.26624e-311
1.052e-310
3.74645e-311
-1.78401e-311
-3.87276e-311
-4.32047e-311
-2.14359e-310
-1.9006e-310
-5.29098e-311
-9.49076e-311
-4.99226e-311
-4.43378e-311
-8.76955e-311
-1.09418e-311
4.30295e-311
4.73359e-312
4.14133e-312
-1.77974e-311
-2.70943e-311
1.5838e-311
-9.7642e-313
4.77145e-311
5.96933e-311
-8.05743e-311
-5.10232e-311
-4.31434e-311
-4.68878e-311
-5.34387e-311
-7.03977e-312
-5.16665e-311
-2.74708e-311
2.54364e-311
-1.2018e-310
-1.84205e-310
-5.96797e-311
1.04382e-311
7.14646e-311
9.57258e-312
-8.63385e-312
-7.30461e-311
-3.08293e-311
-9.47051e-311
-2.02285e-310
-2.31271e-310
-1.52133e-310
-1.79698e-310
-2.11589e-310
-1.89268e-310
-2.10381e-310
-7.66642e-311
-8.51349e-312
-1.23738e-310
-2.77916e-311
9.3632e-311
-8.95316e-311
-1.01211e-311
1.16487e-310
-4.38324e-311
-1.55744e-310
-2.27225e-310
-1.97404e-310
-1.57582e-310
-4.85781e-311
-3.37169e-311
-2.8232e-311
-5.64516e-311
5.38443e-311
6.69544e-311
1.15364e-310
1.53125e-311
-1.50643e-310
-1.05094e-310
-1.15011e-310
-1.14593e-310
3.15585e-312
1.74405e-311
1.13651e-310
5.39231e-311
7.18188e-311
1.47728e-310
6.30244e-311
6.63244e-311
2.63351e-311
-4.66565e-312
-1.14999e-310
-1.24916e-310
-2.06011e-310
-1.74936e-310
-1.48399e-311
-8.89939e-311
-8.80316e-311
-3.565e-311
-1.3453e-310
-8.89856e-311
-8.37353e-312
2.52233e-311
1.46278e-311
2.60858e-313
3.18651e-311
2.02623e-311
3.32457e-311
5.48816e-311
2.39755e-311
-8.95286e-311
-9.60077e-311
-3.96729e-311
-8.13085e-311
-7.56307e-311
-1.66487e-311
-4.71054e-311
1.57278e-311
4.31246e-311
-2.98839e-311
-1.53102e-310
-7.19413e-312
8.86649e-311
4.62481e-311
1.86922e-311
-3.38084e-311
-6.82918e-311
-4.37125e-311
-1.63815e-310
-1.96673e-310
-1.51438e-310
-4.9422e-311
-1.03569e-310
-2.15752e-310
-1.98016e-310
-1.3769e-310
-9.84216e-311
-4.47481e-311
-3.12236e-311
3.99997e-313
-2.3172e-310
-2.25009e-310
-1.34195e-310
-7.47355e-312
-9.56584e-313
-9.93785e-311
-1.15834e-310
-1.53146e-310
-1.72838e-310
2.56347e-312
-9.45982e-312
5.32906e-311
-7.45566e-311
4.90338e-311
1.08518e-310
5.79685e-311
-5.78961e-311
-1.41608e-310
-1.66782e-310
-2.16943e-310
-1.62654e-310
3.29042e-311
4.68605e-311
1.51073e-310
5.92125e-311
7.46414e-311
1.15207e-310
1.02895e-310
1.02396e-310
5.9639e-311
-4.40961e-312
-8.35759e-311
-1.72207e-310
-2.39651e-310
-1.70539e-310
-5.09987e-312
-7.85529e-311
-1.67153e-310
1.30218e-311
-5.35182e-311
-1.73521e-310
-8.48327e-311
-2.87026e-312
3.82401e-311
-2.89544e-311
1.90628e-311
-2.4659e-311
4.89495e-311
5.55648e-311
-2.5708e-311
-7.38261e-311
-1.18774e-310
-2.37328e-311
8.41008e-312
-3.54906e-311
-3.08961e-311
2.72068e-311
7.08195e-311
9.42442e-311
-1.5145e-313
-1.00315e-310
2.25182e-311
8.34428e-311
9.70328e-311
7.08158e-311
2.43214e-311
-5.59832e-311
-1.0128e-310
-2.59148e-310
-2.00161e-310
-1.33985e-310
-3.63349e-311
-1.41079e-310
-2.59461e-310
-2.26677e-310
-2.85434e-310
-2.04197e-310
-1.42889e-310
-2.0372e-310
-2.79112e-310
-5.18658e-310
-7.13849e-310
-1.26007e-310
1.66275e-311
-1.61086e-311
-5.44541e-312
3.55137e-311
-1.17316e-310
-2.3444e-310
-1.83112e-310
-1.36004e-310
-9.04828e-311
-1.3005e-310
-3.16917e-311
1.02463e-311
4.7647e-311
4.41637e-312
-1.14652e-310
-2.06945e-310
-2.55361e-310
-1.97049e-310
1.51284e-311
3.44748e-311
1.40153e-310
7.42918e-311
2.93672e-311
1.03683e-310
1.25524e-310
1.33148e-310
9.4547e-311
1.10251e-311
5.95677e-311
-1.09331e-310
-1.93351e-310
-1.67432e-310
-6.2896e-311
-1.11098e-310
-9.96084e-311
1.77178e-311
-8.18417e-312
-7.43521e-311
-1.321e-310
-4.04404e-311
1.41298e-311
3.26313e-311
4.02634e-311
4.45125e-311
6.89661e-311
3.6419e-312
-9.51834e-312
-6.33206e-311
-9.65131e-311
-2.74393e-311
-5.69075e-311
-3.79348e-311
-3.66494e-311
4.017e-311
4.05588e-311
1.15358e-310
7.09468e-311
-3.95476e-311
4.39113e-311
6.81683e-311
4.65893e-311
-4.48521e-311
-1.237e-311
-2.84097e-311
-1.65978e-310
-2.33773e-310
-1.49676e-310
-6.35059e-311
-1.26923e-310
-2.21351e-310
-2.66641e-310
-2.98756e-310
-3.237e-310
-2.31046e-310
-2.35691e-310
-4.55635e-310
-4.70108e-310
-5.69287e-310
-4.72975e-310
-3.02709e-310
-8.81842e-311
-1.88085e-311
-3.18426e-311
1.35242e-310
-2.62648e-311
-1.29868e-310
-1.84706e-310
-9.28644e-311
-7.40301e-311
-6.99617e-311
-3.03188e-311
-2.58635e-311
-2.05482e-311
-3.12361e-311
-9.83221e-311
-1.94021e-310
-1.97891e-310
-2.2492e-310
-5.7259e-311
2.27665e-311
1.84477e-310
1.04278e-310
7.02366e-311
3.73494e-311
1.42437e-310
1.47766e-310
1.01997e-310
-1.72364e-311
2.54607e-311
-4.61496e-311
-1.80033e-310
-1.21533e-310
-7.63763e-311
-1.05143e-310
-9.84213e-311
-7.35154e-311
1.78264e-311
-2.49938e-311
-1.01252e-310
-5.88281e-311
3.44601e-311
-5.02689e-312
2.59404e-311
7.91725e-311
8.7433e-311
-9.62517e-312
-6.04262e-311
-4.06669e-311
-1.94528e-311
-9.69305e-312
-6.03149e-311
-1.31381e-311
-8.45593e-312
6.33106e-311
1.52749e-310
1.20518e-310
6.09563e-311
-7.5618e-311
-7.44218e-312
-2.14472e-311
-9.44083e-311
-1.4867e-310
-4.84578e-311
-2.64119e-311
-1.23085e-310
-1.88142e-310
-1.26571e-310
-7.76046e-311
-2.23111e-310
-2.66708e-310
-2.64718e-310
-2.75984e-310
-3.00732e-310
-1.7567e-310
-2.19156e-310
-3.99847e-310
-5.86813e-310
-8.653e-310
-8.86799e-310
-1.3404e-310
-1.9173e-310
-1.15435e-310
-1.48139e-310
-3.77311e-311
-1.57722e-310
-1.33446e-310
-2.16793e-310
-1.39536e-310
-1.12178e-310
-4.4086e-312
2.32889e-311
-1.41027e-311
-1.34496e-311
-8.0477e-311
-1.50928e-310
-2.1712e-310
-2.81482e-310
-2.40592e-310
-1.03161e-310
-2.64027e-312
1.324e-310
7.38689e-311
8.23675e-311
6.14074e-311
1.06644e-310
2.04244e-310
5.2023e-311
1.86509e-311
2.89791e-311
-1.78906e-311
-1.59346e-310
-1.28665e-310
-7.06281e-311
-5.70472e-311
-5.79149e-311
-4.13574e-311
-1.59446e-311
-8.15433e-311
-9.05286e-311
-6.56945e-311
-1.24823e-311
-3.58834e-312
3.11147e-311
1.24873e-310
2.47248e-311
-2.84992e-311
-4.95177e-311
-5.71691e-311
-4.19248e-311
-3.23293e-312
-6.93522e-311
-8.73023e-311
-1.21346e-312
5.57774e-311
1.07827e-310
3.00035e-311
7.91653e-311
-3.36176e-312
-2.47329e-311
-1.36604e-310
-8.01745e-311
-9.58953e-311
-3.89886e-311
-1.84458e-311
-6.17296e-311
-1.62865e-310
-1.2033e-310
-1.97149e-310
-1.97356e-310
-1.3066e-310
-2.53632e-310
-2.19993e-310
-2.03175e-310
-2.49302e-310
-2.06591e-310
-3.73505e-310
-6.37268e-310
-7.88094e-310
-9.96328e-310
-9.63427e-311
-1.86046e-311
-1.67403e-311
-1.05759e-310
-2.52272e-310
-1.8085e-310
-1.9915e-310
-1.60385e-310
-9.59065e-311
-2.31891e-311
-5.30771e-311
1.47504e-311
4.34508e-311
1.45105e-311
-3.30601e-311
-1.3763e-311
-2.06963e-310
-2.21148e-310
-2.33505e-310
-1.06782e-310
-9.33536e-311
7.70237e-311
1.4805e-310
6.22669e-311
1.34089e-310
1.72918e-310
1.89804e-310
6.23666e-311
7.50692e-312
-5.86615e-312
-2.97224e-311
-1.12866e-310
-8.97972e-311
-1.20297e-310
-1.09828e-310
-7.83751e-311
-4.33753e-311
-6.53262e-311
-1.30886e-310
-7.44056e-311
-2.17278e-311
-7.491e-312
-4.18672e-311
-7.68336e-312
4.9048e-311
3.58985e-311
-2.38086e-311
-2.29383e-311
-2.20994e-311
-4.10229e-311
-3.69599e-311
-6.75758e-311
-4.15909e-311
2.2816e-311
2.12033e-311
5.76255e-311
-2.56743e-311
8.60755e-311
1.38193e-311
-9.75137e-311
-1.74363e-310
-7.68709e-311
-5.86097e-311
-6.83905e-311
5.40097e-311
-5.05431e-311
-1.29775e-310
-1.16467e-310
-1.93946e-310
-1.2009e-310
-1.3318e-310
-1.4739e-310
-1.66825e-310
-8.82116e-311
-1.45421e-310
-1.74698e-310
-3.44507e-310
-5.28608e-310
-6.11947e-310
-7.83368e-310
-3.05427e-310
-2.65141e-310
-1.73658e-310
-1.82396e-310
-1.96688e-310
-1.24728e-310
-1.40358e-310
-6.55202e-311
-1.87704e-311
9.79456e-311
-1.30338e-311
-8.29225e-312
6.63565e-311
3.04616e-311
-7.33346e-311
-6.65413e-311
-2.56632e-310
-2.84439e-310
-2.29044e-310
-1.24485e-310
-6.85329e-311
-4.47047e-311
1.2503e-310
5.58081e-311
1.04462e-310
1.42236e-310
1.58973e-310
3.20312e-311
1.68524e-311
3.9149e-312
-8.7902e-311
-1.2856e-310
-1.52829e-310
-1.25719e-310
-1.11398e-310
-4.55216e-311
-1.79902e-311
-4.93848e-311
-8.67567e-311
-1.16866e-310
4.07753e-312
3.49871e-311
-3.51439e-312
-4.49671e-311
2.76961e-311
7.36116e-311
6.71358e-311
-2.67705e-312
-2.56498e-311
-4.65324e-311
-3.74849e-311
-1.03762e-310
-1.45004e-311
9.06806e-312
-1.66316e-312
9.17774e-311
2.46632e-311
7.47064e-311
4.30843e-311
-1.32684e-310
-1.17895e-310
-1.57093e-310
-1.38135e-310
-1.19427e-310
3.26811e-311
-6.3669e-311
-1.51956e-310
-8.02961e-311
-1.12024e-310
-8.54857e-311
-6.70316e-311
-3.52046e-311
-4.06119e-311
-1.12767e-310
-1.18562e-310
-2.02474e-310
-4.02881e-310
-5.4855e-310
-3.90279e-310
-4.12785e-310
-5.68151e-310
-3.82913e-310
-1.65007e-310
-1.27858e-310
-3.73661e-311
3.38468e-311
-7.78427e-311
-4.40148e-312
7.55488e-311
-1.5913e-311
3.10502e-311
7.36611e-311
4.00466e-311
8.60337e-312
-6.62969e-311
-1.17033e-310
-2.4079e-310
-1.87825e-310
-1.47837e-310
-1.01797e-310
-6.52369e-311
-1.58931e-311
1.27022e-310
5.04315e-311
7.17999e-311
1.06429e-310
1.62816e-310
4.80079e-311
1.51327e-311
-1.3677e-311
-1.20358e-310
-1.65168e-310
-1.64679e-310
-1.87496e-310
-1.27741e-310
-5.34797e-311
-5.06564e-311
-2.09319e-311
-4.1874e-311
-1.15732e-310
9.06153e-312
4.63283e-311
3.03899e-311
-2.8013e-311
1.45632e-311
6.80939e-311
1.16521e-310
3.81586e-311
-5.88261e-311
-1.10495e-310
-3.60141e-311
-7.66941e-311
-6.73604e-311
3.75648e-311
-2.06911e-311
2.20421e-312
3.98043e-311
6.84131e-311
6.69342e-311
-1.16603e-310
-1.07002e-310
-1.26257e-310
-1.60296e-310
-7.9015e-311
-2.24563e-312
6.14334e-312
-4.71944e-311
6.43359e-312
4.04771e-311
5.65226e-312
5.15174e-311
3.15471e-311
-1.5393e-311
-9.81719e-311
-1.21712e-310
-2.15455e-310
-4.54085e-310
-5.23392e-310
-6.13185e-310
-5.73526e-310
-4.73137e-310
-4.66482e-310
-2.61141e-310
-7.49561e-311
2.47216e-311
3.71378e-311
9.49075e-311
8.82196e-311
9.56154e-311
1.24377e-311
-6.21725e-311
2.20459e-311
3.36129e-311
4.90137e-311
-1.28961e-310
-1.05442e-310
-2.11462e-310
-2.68656e-310
-2.02448e-310
-1.92394e-310
-6.62231e-311
1.99608e-311
1.22821e-310
5.60536e-311
4.27523e-311
7.97898e-311
1.54514e-310
6.82582e-311
-4.47934e-311
-5.58399e-311
-1.47293e-310
-1.65677e-310
-1.97799e-310
-1.66916e-310
-7.92507e-311
-6.76652e-311
-6.35728e-311
3.16265e-311
-7.89998e-311
-9.4575e-311
2.27437e-311
5.51005e-312
-3.68959e-311
1.00776e-311
-4.63323e-311
9.63182e-311
1.75098e-310
6.04603e-311
-2.06686e-311
-7.35824e-311
-2.23678e-311
-5.82801e-311
-6.75349e-311
5.2795e-311
1.96416e-312
1.70253e-311
-4.30773e-311
6.8223e-311
5.22237e-311
-3.64106e-311
-1.25296e-310
-1.1956e-310
-1.22782e-310
-1.05435e-310
-5.28033e-311
6.08502e-312
-1.49165e-311
9.09155e-311
1.70256e-310
6.32747e-311
9.47103e-311
1.87464e-311
-8.78231e-311
-1.39735e-311
-1.73053e-310
-1.42391e-310
-4.31814e-310
-6.43945e-310
-9.51508e-310
-1.01252e-309
-4.19026e-310
-4.2217e-310
-3.21969e-310
-4.09902e-310
-2.25695e-310
-8.99363e-311
2.03343e-311
7.25762e-311
8.06869e-311
1.64207e-311
-5.75636e-311
8.2516e-312
-5.53644e-311
-1.75209e-311
-8.63105e-311
-4.96946e-311
-1.80124e-310
-2.71418e-310
-2.0023e-310
-1.91615e-310
-1.02013e-310
4.08296e-311
1.22852e-310
7.51125e-311
9.37618e-311
8.07681e-311
1.67777e-310
1.28602e-310
-6.02415e-311
-8.43346e-311
-1.7505e-310
-1.82124e-310
-2.13487e-310
-1.42248e-310
-9.32666e-311
-7.16288e-311
-6.22329e-311
3.18995e-311
-7.52284e-311
-5.92559e-311
2.9481e-311
1.60277e-311
-4.87109e-311
4.46887e-311
-8.35289e-312
1.53735e-310
1.43024e-310
1.26016e-310
5.20155e-311
-3.00365e-311
2.57525e-311
-3.90411e-311
-8.43066e-311
1.48484e-312
-8.83278e-312
-5.41251e-312
-1.03666e-310
-1.04793e-311
-3.03287e-311
-3.55087e-311
-1.1138e-310
-1.66771e-310
-2.06684e-310
-1.6928e-310
-1.22549e-310
-2.51032e-311
-6.52007e-311
1.54763e-311
5.16825e-311
4.58869e-311
1.49091e-310
1.14377e-310
6.8846e-311
-5.26359e-311
-6.19262e-311
-5.62101e-311
-3.33695e-310
-5.63117e-310
-7.95593e-310
-1.14625e-309
-5.82538e-310
-5.69507e-310
-3.44025e-310
-5.18613e-310
-2.67069e-310
-1.75534e-310
-1.65049e-311
1.06276e-310
1.28999e-310
2.96924e-311
-8.43709e-311
2.29261e-312
-2.78939e-311
3.57146e-311
-3.12464e-311
-1.21767e-310
-1.47803e-310
-3.20067e-310
-1.57097e-310
-1.43231e-310
-1.83891e-310
-8.14768e-311
1.95868e-311
1.05065e-310
1.35107e-310
1.10615e-310
1.29214e-310
1.33312e-310
-5.32595e-313
-8.55874e-311
-2.06139e-310
-1.40826e-310
-2.15167e-310
-1.34689e-310
-5.79582e-311
-5.86523e-311
-4.72978e-311
4.89483e-311
4.86356e-312
-2.12927e-311
4.33082e-311
4.64766e-311
-3.47978e-311
5.92468e-311
7.25999e-311
9.53444e-311
9.62693e-311
1.29797e-310
7.57015e-311
1.33599e-311
-1.36412e-311
-5.67795e-311
-1.01626e-310
-5.02292e-311
-4.51904e-311
-3.19419e-311
-1.27068e-310
-7.15919e-311
-9.80692e-311
-5.9541e-311
-1.10272e-310
-1.75152e-310
-2.75285e-310
-1.60566e-310
-1.63454e-310
-9.18806e-311
-6.69269e-311
-7.04276e-311
-4.63691e-311
3.34271e-311
2.09136e-310
1.41028e-310
-1.10683e-311
2.57832e-311
-1.73209e-311
-4.34328e-311
-3.23232e-310
-5.18971e-310
-7.29849e-310
-8.90885e-310
-6.52423e-310
-6.24474e-310
-5.54498e-310
-4.1322e-310
-2.48392e-310
-1.04909e-310
3.09286e-311
6.26147e-311
1.79598e-310
8.98242e-311
7.56569e-311
1.09041e-310
4.35459e-311
-1.93419e-311
-2.41311e-311
-7.86061e-311
-1.90208e-310
-2.66138e-310
-1.12651e-310
-1.52357e-310
-1.74605e-310
-3.93578e-311
-1.47594e-311
8.02244e-311
7.64068e-311
1.42986e-310
1.05898e-310
1.30645e-310
3.35421e-312
-1.01464e-310
-1.90688e-310
-1.21414e-310
-2.12217e-310
-8.61175e-311
1.21724e-311
-1.26622e-310
-3.576e-311
1.67525e-311
-1.8493e-311
7.2763e-311
1.22259e-310
1.09162e-310
-4.58919e-311
7.99114e-311
5.70443e-311
3.00078e-311
8.71448e-311
1.36829e-310
3.55993e-311
-2.75007e-311
-4.80349e-311
-6.02555e-311
-1.62021e-310
-1.37832e-310
-6.83773e-311
-5.34681e-311
-1.524e-310
-2.27092e-311
-4.36235e-311
-2.74105e-311
-2.11023e-311
-1.23419e-310
-2.46801e-310
-2.43948e-310
-2.37875e-310
-2.09296e-310
-5.7862e-311
-5.42954e-311
-8.51975e-311
2.97593e-311
1.81634e-310
2.09722e-310
1.49592e-311
9.7428e-312
-1.43116e-311
-2.44332e-311
-3.82081e-310
-5.03208e-310
-6.75815e-310
-9.29563e-310
-9.16424e-310
-8.44502e-310
-7.23824e-310
-4.49763e-310
-3.65451e-310
-2.04178e-310
-5.29707e-311
-1.57646e-312
1.32958e-310
1.59457e-310
1.8565e-310
1.55859e-310
1.36225e-310
5.90824e-311
-1.8043e-311
-9.32881e-311
-1.86467e-310
-2.5753e-310
-2.10702e-310
-1.32697e-310
-1.17554e-310
-1.25341e-310
-2.68426e-311
3.44069e-311
9.96135e-311
1.57406e-310
1.44344e-310
4.93651e-311
-5.47655e-311
-1.11124e-310
-1.47581e-310
-5.86653e-311
-1.83257e-310
-1.15253e-310
2.42105e-311
-8.051e-311
-5.44516e-311
-4.97427e-311
-4.20801e-311
5.32697e-311
1.20718e-310
8.31204e-311
-4.80458e-311
7.30071e-311
3.69769e-311
6.30075e-311
7.57358e-311
8.04778e-311
-3.80882e-311
-5.44006e-311
-5.8432e-311
-1.42123e-310
-1.60878e-310
-9.22796e-311
-2.86975e-311
-5.19665e-311
-1.17723e-310
-7.33765e-311
-3.39639e-311
5.59221e-312
-4.72937e-311
-1.77288e-310
-3.22235e-310
-2.70797e-310
-2.87474e-310
-2.9445e-310
-1.70381e-310
-1.89399e-310
6.44036e-312
1.22999e-310
1.86295e-310
4.4296e-311
4.19122e-311
2.25431e-311
5.48428e-312
2.80759e-311
-3.0011e-310
-6.09743e-310
-9.62741e-310
-1.23324e-309
-1.22235e-309
-1.25056e-309
-1.0304e-309
-6.09654e-310
-2.2702e-310
-1.77173e-310
-1.53927e-310
1.85517e-311
8.42502e-311
1.54471e-310
1.51441e-310