/*--------------------------------*- C++ -*----------------------------------*\
  =========                 |
  \\      /  F ield         | OpenFOAM: The Open Source CFD Toolbox
   \\    /   O peration     | Website:  https://openfoam.org
    \\  /    A nd           | Version:  11
     \\/     M anipulation  |
\*---------------------------------------------------------------------------*/
FoamFile
{
    format      ascii;
    class       volScalarField;
    location    "100";
    object      C;
}
// * * * * * * * * * * * * * * * * * * * * * * * * * * * * * * * * * * * * * //

dimensions      [0 0 0 1 0 0 0];

internalField   nonuniform List<scalar> 
427520
(
1.11684e-311
7.12215e-312
-1.32298e-312
9.91418e-312
5.95989e-312
3.36109e-312
2.68338e-312
-3.00856e-312
-8.28283e-313
3.03355e-312
-2.92774e-313
-1.09145e-312
1.70501e-312
2.16599e-312
-3.79018e-313
-3.33963e-312
-2.23729e-312
-2.40764e-312
-3.40859e-312
-1.6251e-313
-5.53462e-312
8.11316e-313
-2.63096e-312
4.48613e-313
-5.04072e-312
7.79462e-313
2.33994e-312
-1.88819e-312
6.94317e-313
-1.94323e-312
-5.13527e-313
-6.04807e-313
-1.46655e-312
-7.81748e-312
-3.59644e-312
2.87238e-313
-1.16204e-312
4.88755e-314
2.12278e-312
-1.28757e-312
-8.35865e-313
-5.74274e-312
-3.69714e-312
2.21055e-314
2.10867e-312
5.6504e-313
3.86883e-312
7.6019e-313
-8.60718e-312
-3.47522e-312
1.18196e-312
3.94159e-312
8.9498e-312
-3.5095e-312
-1.18525e-311
-6.25455e-312
-3.60776e-312
-8.82517e-312
7.50993e-314
2.2999e-312
-1.51623e-312
-1.17289e-312
-6.85822e-313
9.2192e-313
-1.29824e-312
-5.7141e-312
7.48124e-313
-1.04807e-312
1.35313e-312
7.13576e-312
2.16621e-312
-8.43161e-313
3.97303e-313
-2.37047e-313
-7.99313e-313
-4.96332e-312
-7.94363e-313
1.59865e-312
1.75692e-312
2.2727e-312
1.50608e-311
2.02386e-311
8.86069e-312
2.45959e-312
1.51879e-312
6.90837e-312
1.09473e-311
5.01498e-312
1.90809e-312
-1.65648e-312
-9.34631e-312
2.10758e-313
5.34247e-312
5.80771e-312
-3.01316e-312
-8.38957e-312
-2.30013e-313
-6.54772e-312
-1.89672e-312
4.89239e-312
6.72462e-312
2.36934e-312
8.99558e-313
9.27392e-312
6.25158e-312
-5.39263e-312
-7.46447e-312
-8.68678e-313
-3.53863e-312
1.82185e-312
-5.18671e-312
-1.57955e-311
-2.97484e-312
-1.38254e-311
-1.30611e-311
5.04676e-312
3.03995e-312
1.54292e-312
2.03816e-313
-7.26719e-312
-1.05874e-311
4.66618e-312
-3.56442e-312
-8.91164e-312
-3.28077e-312
-8.35394e-313
-6.10959e-312
-1.13347e-312
-9.58926e-312
-1.79518e-311
-7.99929e-312
-1.46561e-312
1.66197e-311
-4.63303e-312
1.12412e-312
2.50586e-314
-1.34424e-312
8.72719e-313
2.30624e-312
1.86257e-312
3.01048e-312
8.36565e-312
-5.99966e-313
1.33825e-311
9.16013e-312
-1.36395e-311
-1.11014e-311
1.48449e-312
1.13905e-311
-2.97741e-312
9.13046e-313
2.39821e-312
-3.55607e-313
5.2445e-312
-6.64933e-312
1.65794e-312
1.13926e-312
4.80441e-312
-8.67802e-312
-1.45003e-311
2.44119e-311
1.83809e-311
1.64341e-311
5.22277e-312
6.40956e-312
8.50064e-313
8.46812e-312
1.16418e-312
-1.33245e-312
-5.24385e-312
-1.63348e-311
-7.14993e-312
-1.65633e-311
-1.37831e-311
-3.53417e-312
-4.10948e-312
-7.95692e-313
-1.00459e-311
-1.1367e-311
-4.55087e-312
-1.74829e-312
3.77032e-312
5.26761e-312
6.87969e-312
1.31277e-311
-2.68985e-312
-3.72079e-312
-1.09192e-311
-1.354e-311
-8.47818e-312
5.71089e-313
-1.8601e-311
-1.30692e-311
-1.42254e-311
-1.65427e-311
-1.67222e-311
-2.46733e-312
5.44422e-312
3.2917e-312
-6.44274e-312
-3.48781e-312
4.82482e-312
-1.35348e-311
-1.35631e-311
-4.64235e-312
-1.63154e-312
-1.24406e-311
-2.86593e-312
-6.18724e-312
-4.30785e-312
-5.15829e-312
-5.42418e-313
1.12124e-311
-1.35076e-312
-4.61175e-312
-1.30934e-311
9.32309e-312
-3.66388e-312
4.32031e-312
4.56643e-312
-2.0888e-313
-3.28127e-312
-4.70694e-312
-7.32417e-313
-4.89653e-312
-1.93336e-311
-1.5278e-311
-9.03422e-312
-1.9382e-312
1.30353e-313
5.70111e-312
1.2842e-311
8.80736e-312
9.63628e-312
-1.16104e-312
8.82225e-313
4.95109e-312
-1.11676e-312
-6.4372e-312
-1.03216e-311
3.49347e-311
1.7636e-311
3.06649e-311
2.1794e-311
1.93217e-311
2.45859e-312
5.75615e-312
5.03873e-312
4.47908e-312
-2.32287e-312
-1.03217e-311
-9.75343e-312
-1.48989e-311
-1.39056e-311
-1.2646e-311
-1.2204e-311
-6.58865e-312
-5.53718e-313
-3.57984e-312
-5.5143e-312
1.4957e-312
5.54928e-312
1.17149e-311
1.14655e-311
1.95167e-311
7.15041e-312
4.96156e-312
-1.3747e-311
-1.74254e-311
-1.68068e-311
1.76542e-312
-2.09832e-311
-1.25515e-311
-2.06398e-312
-6.51758e-312
-1.69444e-311
-2.64013e-312
-4.49745e-313
-8.29605e-312
-9.02565e-312
-1.80875e-312
1.02179e-311
-5.22001e-312
-5.80468e-312
5.16564e-312
1.25904e-311
5.51973e-312
6.15867e-312
2.19652e-312
-4.20825e-312
2.61813e-312
7.31728e-312
5.00936e-312
-2.35356e-312
-1.19344e-311
-9.73706e-312
1.1476e-312
-1.88572e-312
3.22588e-312
2.93457e-312
-6.2145e-312
-1.56112e-311
-1.60985e-311
-3.41915e-312
-1.60155e-311
-2.46519e-311
-2.05088e-311
-9.87875e-312
1.20153e-313
-5.33418e-312
7.74958e-313
1.26566e-311
8.82775e-312
1.31523e-311
9.05278e-312
3.19228e-312
-2.67485e-312
-1.16382e-312
-1.10192e-311
-2.91356e-311
3.67187e-311
8.91048e-312
1.79371e-311
2.80289e-311
1.5293e-311
-7.86495e-312
-8.36343e-312
4.73041e-312
1.38232e-311
4.53644e-312
2.62243e-312
-5.60946e-312
-9.32308e-312
-6.79568e-312
-1.41864e-311
-1.49542e-311
-5.93382e-312
2.60032e-312
7.88229e-313
-1.76696e-312
6.6904e-312
6.2456e-312
1.38042e-311
1.47892e-311
1.18985e-311
9.33588e-312
-1.53143e-312
-9.01481e-312
-1.19471e-311
-1.52991e-311
-3.68866e-312
-2.28089e-311
-7.06622e-312
-1.12033e-312
-5.3982e-312
-1.76981e-311
-2.15513e-311
-3.39664e-313
-8.23413e-312
-2.64709e-312
-1.49444e-312
-5.84741e-312
-1.22424e-311
-6.974e-312
-1.529e-312
5.41957e-312
5.37438e-312
2.92498e-312
1.0005e-311
-3.54795e-312
5.34095e-312
4.80358e-312
7.82906e-312
5.37791e-312
-1.5483e-311
-4.72146e-312
-7.30489e-312
-3.50219e-312
-1.52847e-312
-1.18221e-312
-5.20151e-312
-1.32634e-311
-5.29685e-312
-1.66306e-312
-8.8992e-312
-1.30909e-311
-1.75447e-311
-1.92492e-311
-9.23207e-312
-1.65471e-311
-1.1235e-311
5.69867e-312
4.35273e-312
7.71044e-312
4.68638e-312
-3.32328e-312
-1.43829e-311
-4.65586e-312
-1.31721e-311
-3.08662e-311
3.28555e-311
1.32656e-311
2.67834e-311
3.04555e-311
1.7713e-311
-7.33586e-312
-1.45064e-311
6.27708e-312
1.18693e-311
1.62802e-311
9.57755e-312
-4.29978e-312
3.46593e-312
-1.10109e-312
4.50418e-313
-9.95242e-312
-9.41269e-312
9.80275e-312
2.48069e-312
3.50922e-312
9.60419e-312
3.88911e-312
3.80447e-312
6.94887e-312
7.46873e-312
8.35465e-312
-6.53955e-312
-6.21873e-313
-4.43534e-312
-4.35696e-312
-4.68744e-312
-2.16188e-311
-1.73826e-311
-1.70342e-311
-1.47941e-311
-2.024e-311
-2.17744e-311
-5.21558e-312
-6.57575e-312
-2.71986e-313
-5.27754e-312
-1.05032e-311
-1.48056e-311
-6.48128e-312
2.11143e-312
1.36385e-311
7.25106e-313
6.6457e-312
8.40763e-312
-4.81991e-312
3.9163e-312
4.70212e-312
2.00758e-311
3.27017e-312
-1.5468e-311
5.2446e-312
-1.08519e-311
-9.88106e-312
-1.15805e-311
-1.13924e-311
-1.1348e-311
-1.54594e-311
-3.31431e-312
1.17031e-312
-5.01496e-312
-3.22115e-312
-1.79713e-311
-1.45892e-311
-7.0446e-312
-9.36941e-312
-9.19441e-312
-5.09417e-312
-4.38312e-312
-2.2714e-312
6.81024e-312
-1.41506e-311
-2.08826e-311
-1.23285e-311
-4.30526e-312
-9.16611e-312
5.64515e-311
3.86145e-311
2.22405e-311
3.00946e-311
2.42499e-311
-1.00405e-311
-1.57178e-311
6.4843e-313
1.24959e-311
1.82364e-311
4.20041e-312
-1.0923e-311
-4.25704e-312
1.19956e-312
-1.7957e-312
-1.08288e-311
-1.58901e-311
8.80246e-313
5.95424e-312
1.10246e-311
1.08775e-311
-5.65332e-312
-7.10402e-312
5.91071e-312
8.07906e-312
1.08458e-311
-7.19323e-313
3.04873e-312
3.14673e-312
1.94254e-313
2.83314e-312
-8.34692e-312
-1.59913e-311
-2.75974e-311
-1.94649e-311
-1.16345e-311
-1.76853e-311
-2.00421e-311
-1.56148e-311
2.10008e-312
1.43601e-312
-1.32846e-311
-1.71354e-311
-1.12988e-311
5.6418e-312
1.03456e-312
-3.33387e-312
1.16849e-312
3.96439e-312
3.7111e-312
2.70813e-312
2.82794e-312
1.57654e-311
5.68817e-312
-5.37142e-312
6.81275e-312
-1.00837e-311
-5.43056e-312
-1.34569e-311
-2.28329e-311
-1.92028e-311
-1.36016e-311
-1.36832e-312
1.63909e-312
-1.49827e-311
-1.06356e-311
-2.00354e-311
-1.24751e-311
-6.75361e-312
-4.61103e-312
-6.43711e-312
-1.56822e-311
-1.16353e-311
3.52797e-312
-2.36717e-312
-5.71345e-312
-3.16075e-311
-2.41677e-311
-2.91595e-312
9.18371e-312
1.84392e-311
1.93907e-311
2.89162e-311
3.50292e-311
3.95188e-311
1.86469e-312
-1.06447e-311
1.85578e-312
1.52264e-311
2.80216e-311
9.99441e-312
-6.05807e-312
-1.4974e-311
-7.26256e-312
-3.81909e-312
-1.4952e-311
-1.40439e-311
-6.82839e-312
-1.23397e-312
1.45627e-311
2.1132e-311
7.28973e-312
-6.96101e-312
-3.98739e-313
-8.77075e-313
8.23905e-312
4.7557e-312
-1.11376e-312
6.11746e-312
-4.40439e-312
-1.67964e-313
-2.66984e-312
-1.52492e-312
-1.60358e-311
-1.59581e-311
-9.17616e-312
-1.70221e-311
-1.47848e-311
-1.93119e-311
7.76004e-312
8.43331e-313
-8.61587e-312
-5.83736e-312
-8.19961e-312
-7.46724e-312
-1.33162e-311
-6.12455e-312
2.40921e-312
8.28683e-312
6.98051e-312
5.54452e-312
-4.68533e-312
5.95718e-312
-2.63819e-312
-4.16259e-312
-6.32874e-312
-1.00429e-311
9.8088e-313
-7.51779e-312
-1.74884e-311
-2.99142e-311
-1.17389e-311
4.13383e-313
-1.47272e-312
-1.41177e-311
-9.93926e-312
-1.40824e-311
-1.00543e-311
-3.55718e-312
8.87034e-313
-6.74242e-312
-8.85319e-312
-7.74909e-312
1.21641e-311
1.17818e-311
2.34335e-312
-6.61684e-312
-7.41442e-312
1.4477e-311
1.86849e-311
-2.75557e-311
-1.12733e-311
-1.79073e-312
1.59814e-311
3.00785e-311
6.47761e-312
-1.45546e-311
-5.65994e-312
1.10182e-311
2.50886e-311
1.32409e-311
7.81303e-312
-6.90114e-312
-9.18768e-312
1.33368e-312
-7.54039e-312
-2.23591e-311
-1.92659e-311
-6.12664e-312
1.07357e-311
2.08924e-311
8.10093e-312
-6.49521e-312
4.87579e-312
1.32476e-312
7.29734e-312
-2.04703e-313
-5.33477e-312
2.14506e-312
-7.14419e-312
5.13724e-312
2.85319e-312
1.01841e-311
-1.12912e-312
-8.77596e-312
-1.85643e-311
-1.18373e-311
-7.33165e-312
-1.35352e-311
1.02426e-311
3.54988e-312
-2.89009e-312
-1.8879e-312
-8.16361e-312
-1.17751e-311
-2.18698e-311
-5.35926e-312
-9.81722e-313
6.3181e-312
7.7379e-312
-7.07515e-312
-1.37928e-312
6.76566e-312
-4.12132e-312
-1.23697e-311
-1.01318e-311
-2.21372e-311
-1.36816e-311
-1.04447e-311
-2.42998e-311
-2.65102e-311
-1.80652e-311
-6.53493e-312
-9.51223e-313
-1.46625e-311
-5.84851e-312
-1.15935e-311
-9.05679e-312
3.49956e-312
1.27034e-311
5.87758e-312
6.31129e-312
2.20545e-312
2.03181e-312
1.98804e-312
-2.24874e-312
-7.81449e-312
-2.2864e-313
3.4426e-311
4.83618e-311
-2.66078e-311
7.80225e-312
7.85195e-312
1.99487e-311
2.28473e-311
-2.30808e-312
-2.55807e-311
4.1499e-312
1.60396e-311
1.70843e-311
5.98549e-312
5.86989e-312
-5.83076e-314
-5.22427e-312
2.61677e-312
-1.13206e-312
-2.28629e-311
-1.8342e-311
-1.04868e-311
-4.25489e-312
4.04149e-312
1.6114e-311
1.1638e-311
1.4e-311
9.29469e-312
9.18486e-312
7.93366e-313
-7.97049e-313
3.11341e-312
-1.08332e-311
3.70371e-312
9.50596e-312
1.55617e-311
1.08602e-311
1.67594e-312
-6.10663e-312
-1.49893e-311
-2.29409e-312
-1.37294e-311
1.29517e-311
1.84184e-312
5.71122e-312
9.40189e-312
2.80469e-312
-1.22487e-311
-2.13505e-311
-3.90148e-312
-1.13317e-311
-1.24463e-312
5.42066e-312
-4.35817e-312
8.12308e-312
2.00113e-312
-6.32571e-312
-1.0087e-311
-1.35061e-311
-2.23557e-311
-1.49472e-311
-7.50827e-312
-2.4028e-311
-2.84523e-311
-2.1096e-311
-6.61193e-313
-8.66942e-312
-1.49443e-311
7.15824e-313
-7.60257e-312
-6.1603e-312
6.50849e-312
1.42643e-311
1.34975e-311
5.184e-312
-9.50376e-313
-6.10472e-312
-3.8005e-312
-4.87436e-312
-1.10015e-312
1.07596e-311
1.51471e-311
5.32438e-311
-2.03301e-312
5.61713e-312
3.56636e-311
3.86716e-311
2.51435e-311
1.28352e-311
-1.18866e-311
5.60686e-312
7.43422e-312
1.28586e-311
6.78695e-312
1.06275e-311
3.15733e-312
7.84026e-312
1.36729e-311
7.22909e-312
-1.33903e-312
-1.23434e-311
-1.27703e-311
-1.11535e-311
-8.33024e-312
2.94635e-312
1.02655e-311
1.05717e-311
7.0649e-312
9.12521e-312
4.95384e-312
-1.73069e-312
-1.09473e-311
-4.13023e-312
-1.31804e-311
5.96544e-312
1.28029e-311
1.67311e-311
1.43692e-311
-2.83798e-312
-5.21912e-312
6.3432e-312
-6.69944e-313
8.04456e-312
3.63814e-312
1.14562e-311
2.69223e-312
-5.61678e-313
-5.84415e-312
-1.61229e-311
-1.3621e-311
-1.90641e-311
-8.30915e-312
5.23757e-312
-5.84374e-312
2.20915e-312
8.36036e-312
3.95219e-312
-3.71772e-312
-9.8815e-312
-1.69757e-311
-6.44646e-312
-3.40928e-312
-1.77443e-311
-2.01844e-311
-1.37506e-311
-2.87221e-312
-7.39955e-313
5.38853e-312
1.25048e-311
9.83787e-312
2.20744e-312
7.66146e-312
2.3607e-311
7.86418e-312
-3.07411e-312
-1.0355e-311
-1.83341e-311
-1.08163e-312
8.26404e-312
-1.66932e-311
6.93622e-312
1.29256e-311
-2.62367e-313
3.6006e-311
1.98597e-311
2.65766e-311
3.55634e-311
2.3035e-311
6.67446e-312
-3.4606e-312
1.03439e-311
1.38079e-311
2.5709e-311
2.08816e-311
1.77594e-311
2.47765e-312
-5.41835e-312
5.63576e-312
3.27389e-312
2.43285e-313
-8.80843e-312
-5.92008e-313
-5.40066e-312
-1.00237e-311
-5.19934e-312
6.44752e-312
1.30065e-311
-1.89554e-312
-1.58102e-312
9.0612e-312
1.86051e-312
-1.25752e-311
-1.00321e-311
-5.39391e-312
2.32202e-312
1.4289e-311
1.77658e-311
1.82344e-311
-2.26514e-312
-6.76619e-312
1.26329e-312
1.45205e-312
4.29746e-312
6.37552e-312
2.18627e-311
4.36573e-312
2.68978e-312
-9.88426e-312
-1.20531e-311
-1.21579e-311
-9.55759e-312
-6.0265e-312
-2.0298e-313
-4.80091e-312
1.40537e-311
7.3788e-312
6.61235e-313
-1.03419e-311
-1.6777e-311
-2.171e-311
-6.99548e-312
-6.01609e-312
-7.72985e-312
-3.67551e-312
-1.18361e-311
-2.42128e-313
5.10761e-312
8.10199e-312
1.03586e-311
1.78816e-311
1.39125e-311
2.62544e-311
2.52337e-311
5.87637e-312
9.08828e-313
-5.65186e-312
-6.6675e-312
-1.17805e-311
-8.34443e-312
-2.47803e-311
-1.10885e-311
-1.96254e-311
-3.86227e-311
2.2502e-311
4.26177e-311
4.30991e-311
3.4663e-311
4.01944e-311
2.64201e-311
1.9647e-311
8.18501e-312
1.38879e-311
1.90802e-311
1.21193e-311
1.43272e-311
1.79091e-311
-1.37526e-311
-7.28491e-312
-1.43977e-312
9.05917e-312
-2.34159e-312
1.61484e-312
2.56712e-312
-1.04001e-311
-1.22616e-311
7.23567e-313
4.38495e-312
-1.07289e-311
3.66901e-314
1.1517e-311
2.57907e-312
-3.84189e-312
-6.6751e-312
-1.85682e-312
1.18744e-312
1.06313e-311
1.74312e-311
1.9815e-311
1.15548e-312
-6.38029e-312
6.80582e-312
5.16432e-312
4.08754e-312
7.89668e-314
1.87537e-311
7.55092e-312
1.45337e-311
-7.57205e-312
-1.70405e-311
-2.43349e-311
-1.16349e-311
-1.3716e-312
6.35362e-313
1.44036e-312
1.17545e-311
6.47921e-312
6.29439e-312
-6.56183e-312
-2.06152e-311
-2.24823e-311
-1.0582e-311
-7.57711e-312
-7.28375e-312
2.63029e-312
-1.27897e-311
-9.11877e-312
3.94973e-312
4.2001e-313
1.88295e-312
1.00066e-311
1.6654e-311
2.76228e-311
2.52842e-311
1.89626e-311
4.10648e-312
1.38432e-311
1.4827e-312
-6.8488e-312
-1.36276e-311
-3.26541e-311
-1.27036e-311
1.81637e-311
-7.7312e-312
-8.35933e-313
2.2709e-311
5.29795e-311
4.49708e-311
4.21342e-311
2.12218e-311
1.72831e-311
1.35578e-311
2.35682e-312
1.82438e-311
1.28392e-311
2.26901e-311
2.21139e-311
-2.25942e-312
-3.75536e-312
1.6899e-311
1.29602e-311
6.63837e-312
3.89938e-312
7.11424e-312
5.47086e-312
3.06039e-312
1.22412e-311
8.95677e-312
-1.80292e-312
5.79816e-313
-6.07554e-313
2.60466e-312
3.69523e-312
-7.96199e-312
-7.61757e-312
3.25435e-312
1.15547e-311
1.57903e-311
1.70243e-311
3.05809e-312
-5.56357e-312
2.53111e-313
1.36564e-312
-8.59103e-312
-2.57747e-312
6.81868e-312
1.58718e-312
9.00733e-312
-1.21917e-311
-1.84175e-311
-1.94291e-311
-7.83222e-312
2.8559e-312
7.81011e-312
1.13567e-311
5.62804e-312
9.13787e-312
2.98174e-312
-6.86882e-312
-1.1495e-311
-9.62376e-312
-1.5711e-312
-1.90451e-312
-2.08249e-312
-5.72727e-312
-1.32485e-311
-1.65411e-311
-6.89298e-312
-9.65706e-312
1.13918e-312
1.18032e-311
1.86197e-311
3.70745e-311
3.87232e-311
1.31488e-311
2.42536e-312
1.67107e-311
1.40649e-311
1.16561e-311
-6.82013e-312
-4.97627e-312
-7.48153e-312
2.14587e-312
1.86434e-311
-1.9827e-311
-6.01679e-312
1.51951e-311
1.30525e-312
7.55724e-312
-5.01533e-312
1.15395e-311
1.01733e-311
9.7782e-312
2.03678e-311
1.89527e-311
2.79773e-311
1.63854e-311
9.76565e-312
5.13543e-312
1.8252e-311
6.38458e-313
1.93566e-312
1.85978e-312
8.30557e-312
1.60855e-311
1.63738e-311
1.87958e-311
1.80108e-311
6.23726e-312
7.43402e-312
8.59096e-312
-2.60746e-312
8.66583e-313
-3.89358e-312
-8.42155e-312
1.41021e-311
1.19894e-311
2.09e-311
1.55664e-311
5.88935e-312
-2.28431e-312
1.08062e-312
7.25981e-312
-9.57887e-312
-4.5107e-312
-1.06193e-312
1.32473e-313
9.73902e-312
-1.62577e-311
-1.71522e-311
-1.74192e-311
-6.51907e-312
7.69361e-312
4.14825e-313
9.04539e-312
1.93631e-312
1.2531e-311
7.19544e-312
-3.39828e-312
-5.59977e-312
-5.94673e-312
5.91464e-312
9.96064e-312
3.59622e-312
-3.06915e-312
-1.10536e-311
-1.69792e-311
-1.59561e-311
-1.97548e-311
-1.24954e-311
3.28031e-312
2.25418e-311
3.60887e-311
3.35854e-311
3.00746e-311
2.34979e-311
1.48909e-311
1.33194e-311
-3.15226e-312
-9.295e-312
9.06502e-312
2.03197e-311
2.86361e-311
6.6043e-311
-8.42734e-311
-5.38593e-311
-3.53921e-311
-4.384e-311
-2.82616e-311
-1.57041e-311
-4.19555e-312
-4.058e-312
-9.52208e-313
6.00085e-312
1.29372e-311
1.95688e-311
2.31136e-311
2.0775e-311
1.17787e-311
2.87875e-312
-1.84721e-312
4.98247e-312
2.70193e-312
-9.065e-312
1.1079e-311
2.39515e-311
1.26689e-311
1.85762e-312
8.69238e-313
1.32447e-311
1.73732e-311
4.01533e-312
1.74989e-312
-3.77268e-313
-4.30049e-312
1.0103e-311
1.75354e-311
2.3141e-311
1.19528e-311
6.26207e-312
4.18014e-312
7.81029e-312
2.38344e-312
-1.17088e-311
-3.4025e-312
-1.07817e-311
-1.62772e-312
1.65921e-311
-8.89879e-312
-2.45541e-311
-2.54306e-311
-8.75008e-312
1.75263e-311
1.00287e-311
1.09744e-311
1.20543e-311
9.81437e-312
1.34749e-311
-1.39679e-312
-3.55573e-312
-6.24534e-312
1.48879e-311
1.4784e-311
7.38177e-312
-4.77009e-312
-1.37612e-311
-1.94986e-311
-1.90361e-311
-1.82156e-311
-7.46514e-312
3.58891e-312
1.20045e-311
3.5471e-311
3.31078e-311
3.01837e-311
1.77423e-311
3.36604e-312
3.22054e-312
-5.96743e-312
-4.82201e-312
-7.88139e-313
2.27294e-311
5.42294e-311
6.93062e-311
-1.3324e-310
-9.93824e-311
-7.14551e-311
-6.14813e-311
-4.46908e-311
-3.61045e-311
-1.48877e-311
-2.95769e-311
-6.59452e-312
-2.8153e-312
7.16285e-312
1.69624e-311
2.44753e-311
2.31454e-311
7.22838e-312
6.80559e-312
-7.07067e-312
5.07325e-312
2.39096e-312
-1.31747e-311
5.10377e-312
2.16258e-311
1.39265e-311
-5.96221e-312
-8.64236e-312
8.59609e-312
1.41733e-311
1.19552e-312
2.09885e-312
-5.70467e-312
-6.18361e-312
7.1905e-312
1.52814e-311
2.17425e-311
1.99415e-311
2.05028e-312
7.5228e-312
6.77115e-312
-5.02089e-313
-1.03944e-311
-1.76221e-312
-1.42153e-311
-7.26214e-312
1.16217e-311
-1.02198e-311
-1.78274e-311
-2.06406e-311
-5.26809e-312
1.52579e-311
1.7234e-311
1.882e-311
1.92064e-311
1.94407e-311
1.43278e-311
-2.32529e-312
-5.51007e-312
-3.82518e-312
2.35165e-311
2.70705e-311
1.10786e-311
-1.08773e-311
-9.46363e-312
-3.25068e-312
-1.14337e-311
-4.09322e-312
1.85343e-312
-6.46702e-312
7.22871e-312
3.07616e-311
1.64873e-311
1.43882e-311
1.0415e-311
-3.88859e-312
-4.03036e-312
-7.63051e-312
-2.5412e-311
2.4894e-312
4.55189e-311
6.92682e-311
9.42831e-311
-2.39119e-310
-2.11955e-310
-1.63881e-310
-1.38589e-310
-8.37592e-311
-7.0804e-311
-4.03253e-311
-3.99998e-311
-1.60151e-311
-8.0278e-312
5.01131e-312
2.30428e-311
2.62854e-311
1.76666e-311
9.96525e-312
1.15505e-311
-2.61674e-312
1.01344e-312
5.57579e-313
-1.76413e-311
-3.3882e-312
1.60053e-311
1.86236e-311
-6.81588e-312
-9.44673e-312
-2.54877e-312
-3.8576e-312
-1.08442e-312
-3.95494e-312
-6.14797e-312
-1.1174e-311
3.16929e-312
1.74988e-311
1.92476e-311
1.02104e-311
2.53144e-312
1.34671e-312
1.13184e-311
-6.51672e-312
-1.21469e-311
-1.66192e-311
-1.82961e-311
-8.9908e-312
3.63915e-312
-1.06888e-311
-7.04017e-312
-1.63977e-311
2.11835e-312
1.89136e-311
2.62478e-311
2.18182e-311
1.66389e-311
2.0233e-311
1.47561e-311
3.07034e-313
1.7843e-312
8.8189e-312
2.77124e-311
3.08193e-311
1.97821e-311
-8.35741e-313
6.73557e-312
3.31003e-312
1.2164e-313
2.64981e-312
3.70455e-312
-9.46491e-312
8.86752e-312
3.16633e-311
1.80528e-311
2.40368e-311
-1.16998e-312
-1.06239e-311
-1.64469e-311
-1.89963e-311
-3.40584e-311
1.14671e-311
2.21276e-311
3.44343e-311
3.28356e-311
-5.62749e-310
-4.77973e-310
-3.98927e-310
-3.09152e-310
-2.22694e-310
-1.67545e-310
-1.06227e-310
-7.52995e-311
-4.7217e-311
-1.77156e-311
-7.83875e-312
1.60699e-311
3.63983e-311
2.32299e-311
1.1812e-311
1.8892e-311
-6.31498e-312
2.75624e-312
7.40749e-312
-7.03875e-312
-8.09925e-312
1.74957e-311
1.43673e-311
2.70763e-312
-7.72596e-312
-1.67338e-312
-8.94223e-312
-3.72546e-312
-1.03397e-312
-3.08963e-312
-6.68124e-312
-9.51606e-314
1.23608e-311
8.92089e-312
5.14433e-312
-2.25979e-312
-5.25265e-312
5.73281e-312
-4.88349e-312
-1.68266e-311
-1.67912e-311
-2.29859e-311
-7.40906e-312
6.81545e-312
-5.63261e-312
5.06889e-313
-4.51937e-312
6.9538e-312
1.78925e-311
1.80519e-311
1.8342e-311
2.10696e-311
1.79905e-311
1.04186e-311
5.39636e-312
1.68051e-311
2.21636e-311
4.30975e-311
4.20324e-311
3.89724e-311
1.00369e-311
1.6158e-311
-4.23863e-312
-7.07768e-312
-4.43781e-312
-6.09333e-312
-6.67839e-312
6.28593e-312
2.22099e-311
1.71471e-311
2.31131e-311
3.00326e-312
-1.63008e-311
-2.87222e-311
-2.86892e-311
-1.44334e-311
-3.78205e-312
2.27381e-311
1.07217e-311
4.14855e-311
-1.20556e-309
-1.00582e-309
-8.34154e-310
-6.78625e-310
-5.2858e-310
-3.87133e-310
-2.85996e-310
-1.89129e-310
-1.08948e-310
-4.93025e-311
-2.05209e-311
8.14969e-312
2.76791e-311
2.32423e-311
1.72308e-311
7.14497e-312
-1.20526e-311
1.51715e-312
7.37736e-312
6.07992e-312
3.40031e-312
1.83702e-311
2.03492e-311
1.71017e-311
6.91452e-312
2.52439e-312
-1.51201e-311
-2.92594e-312
5.11012e-313
-7.03606e-313
-1.13665e-311
-5.11328e-312
5.46183e-312
2.08077e-312
2.39458e-312
-9.73865e-312
-1.44815e-311
1.03815e-312
-9.09406e-312
-1.93898e-311
-1.51926e-311
-1.39689e-311
-1.01939e-311
6.73279e-312
1.66454e-312
-1.94364e-312
1.38342e-312
3.10907e-312
1.22389e-311
1.80751e-311
1.81605e-311
1.38416e-311
1.42495e-311
5.14149e-312
6.82492e-312
1.41936e-311
1.98232e-311
3.20252e-311
3.7332e-311
3.38023e-311
9.33443e-312
3.94585e-312
2.38983e-312
-3.47472e-313
-6.58557e-312
8.47769e-312
7.06172e-312
1.59188e-311
2.26363e-311
1.84392e-311
2.01993e-311
6.05104e-312
2.73315e-312
-6.67744e-312
-1.0944e-311
1.74406e-311
2.61888e-311
5.03256e-311
3.36603e-311
5.12577e-311
-2.71769e-309
-2.23299e-309
-1.89667e-309
-1.58358e-309
-1.26311e-309
-9.44254e-310
-6.58462e-310
-4.23208e-310
-2.4281e-310
-1.25629e-310
-6.13341e-311
-1.97994e-311
1.14631e-311
8.62585e-312
2.08326e-311
5.44278e-312
-5.91087e-312
-2.74282e-312
-1.06476e-312
1.96545e-312
4.54161e-313
-2.06548e-312
3.13128e-312
1.31832e-311
1.45076e-311
5.33769e-312
-1.8467e-311
-8.41958e-312
6.08061e-312
7.9396e-312
-2.30005e-312
-4.42047e-312
-1.33729e-312
-4.4623e-312
-1.35161e-312
-9.30278e-312
-1.13318e-311
-1.01332e-311
-1.19654e-311
-2.46079e-311
-1.72641e-311
-1.20447e-311
-4.3368e-312
2.47181e-312
6.09167e-312
-7.5899e-312
2.07895e-312
9.55234e-312
7.01191e-312
1.61879e-311
1.81821e-311
1.80399e-311
2.48794e-311
1.62313e-311
9.46535e-312
-4.33267e-312
4.31155e-312
2.04246e-311
3.83444e-311
3.46782e-311
1.91681e-311
2.42605e-312
7.68349e-312
1.42798e-311
1.17032e-312
1.66035e-311
1.08955e-311
1.91991e-311
2.10008e-311
2.15597e-311
2.41114e-311
2.33271e-311
1.5655e-312
2.32938e-312
-2.35444e-311
3.4933e-312
1.9343e-312
2.21954e-311
3.04657e-311
5.12019e-311
-6.15889e-309
-5.07124e-309
-4.32316e-309
-3.69148e-309
-3.0194e-309
-2.27394e-309
-1.5487e-309
-9.86516e-310
-5.85412e-310
-3.07263e-310
-1.63731e-310
-8.26019e-311
-2.86724e-311
-1.36876e-312
2.22166e-311
7.93435e-312
-6.92205e-313
1.7272e-312
-6.23776e-312
-3.80426e-312
-1.0767e-311
-9.06376e-312
-2.67185e-312
-1.44672e-314
9.85442e-312
-2.07741e-313
-2.13051e-311
-7.18281e-312
5.54327e-312
1.42422e-311
-4.21773e-313
-4.08038e-312
-6.73492e-312
3.73033e-312
3.45036e-312
-5.7799e-312
-1.64264e-311
-2.56052e-312
-1.86148e-311
-2.93418e-311
-2.2626e-311
-2.45443e-311
-1.28717e-311
-4.69154e-312
-3.18714e-313
-1.22074e-311
-6.53281e-312
1.279e-311
1.11297e-311
1.61352e-311
1.98336e-311
2.04929e-311
2.17276e-311
1.45709e-311
8.95462e-312
-3.92044e-312
-6.17016e-312
1.1507e-311
3.11012e-311
3.23983e-311
3.26922e-311
1.53365e-311
6.16855e-312
-2.60656e-312
-5.11731e-313
9.81522e-312
6.8125e-312
4.38444e-312
-9.25546e-313
2.48332e-312
2.88656e-311
2.98636e-311
7.45389e-312
-8.1433e-312
-1.01858e-311
-1.63219e-311
-4.97718e-312
1.77109e-311
2.96054e-311
4.41552e-311
-1.40353e-308
-1.1545e-308
-9.91331e-309
-8.55759e-309
-7.04485e-309
-5.34246e-309
-3.66949e-309
-2.30108e-309
-1.34825e-309
-7.46868e-310
-3.88659e-310
-2.15345e-310
-1.00165e-310
-3.83056e-311
1.5737e-312
1.24791e-311
4.89647e-312
-4.65059e-312
-1.19162e-311
-8.3042e-312
-8.30446e-312
-3.76595e-312
-1.59372e-312
2.96536e-313
3.78847e-312
-4.76048e-312
-2.41204e-311
-1.16804e-311
-2.04872e-312
1.09951e-311
1.10518e-311
7.48946e-312
-8.88031e-312
-1.43789e-312
-3.03314e-312
-1.46923e-312
-8.95926e-312
1.47845e-314
-1.86641e-311
-2.98484e-311
-3.61831e-311
-3.0458e-311
-1.41071e-311
-1.46926e-311
-6.95584e-312
-2.48963e-311
-1.00985e-311
2.15536e-312
1.06033e-311
9.89176e-312
1.50142e-311
2.235e-311
1.16266e-311
2.05269e-311
1.60328e-311
-4.90246e-312
-8.26221e-312
2.72611e-312
1.57789e-311
2.49932e-311
3.41504e-311
1.77458e-311
1.89411e-311
4.41392e-312
-9.09693e-313
1.57475e-311
1.87657e-311
1.56614e-311
-1.06155e-312
5.10559e-312
2.8993e-311
2.65784e-311
-4.78494e-312
6.93141e-312
7.2818e-313
-2.13864e-312
-5.71193e-312
2.6935e-311
2.94793e-311
4.31517e-311
-3.20546e-308
-2.6322e-308
-2.27229e-308
-1.97866e-308
-1.6452e-308
-1.24966e-308
-8.61226e-309
-5.42735e-309
-3.18014e-309
-1.75923e-309
-9.07692e-310
-4.71324e-310
-2.33972e-310
-9.3683e-311
-2.40022e-311
4.23045e-312
-4.06364e-312
-8.74291e-312
-1.10848e-311
-3.78593e-312
-3.00829e-312
-5.45174e-312
7.84664e-312
4.67292e-312
-9.03813e-313
-5.24294e-312
-1.27078e-311
-5.38868e-312
-3.61155e-312
6.41641e-312
8.18492e-312
9.28532e-312
-1.58203e-312
-5.46807e-312
-7.43957e-313
-3.2615e-312
-2.91916e-312
1.45345e-312
-1.62033e-311
-2.71501e-311
-3.10077e-311
-2.12509e-311
-1.96947e-311
-1.18579e-311
-1.00378e-311
-2.10675e-311
-1.28416e-311
-2.06692e-312
1.08961e-313
1.65498e-313
4.31983e-312
2.45081e-311
1.79935e-311
1.97118e-311
7.31881e-312
-7.79801e-312
-1.48593e-311
-5.41584e-312
1.14967e-311
2.47217e-311
3.4352e-311
1.68384e-311
1.20036e-311
1.2878e-311
1.66597e-311
2.08004e-311
2.24399e-311
8.48774e-312
4.35217e-313
6.50632e-312
8.07203e-312
1.30321e-311
-1.53378e-311
2.84639e-312
2.19861e-312
1.99216e-311
3.27538e-311
4.35707e-311
4.96649e-311
4.04162e-311
-7.34168e-308
-6.02025e-308
-5.22387e-308
-4.58863e-308
-3.84074e-308
-2.92613e-308
-2.01788e-308
-1.27313e-308
-7.43435e-309
-4.07455e-309
-2.10887e-309
-1.04765e-309
-5.1719e-310
-2.44116e-310
-9.1665e-311
-2.80656e-311
-1.25706e-311
-5.56044e-313
-4.87048e-312
-5.40901e-312
-8.47452e-312
-7.95152e-312
7.88703e-312
-3.28867e-312
-1.08661e-311
-4.34396e-312
-1.55864e-311
-3.13714e-312
-6.24203e-312
2.08844e-311
1.01904e-311
1.10676e-311
4.79582e-312
9.7586e-313
-2.78178e-312
1.034e-312
-8.10857e-312
-1.96637e-312
-1.65286e-311
-2.11997e-311
-2.97108e-311
-2.34557e-311
-1.62006e-311
-9.39836e-312
-5.0501e-313
-1.8798e-311
-5.67853e-312
-7.92869e-313
-3.68632e-312
2.33655e-312
5.5045e-312
2.74749e-311
1.30091e-311
9.65796e-312
-1.02948e-311
-2.53908e-311
-3.61529e-311
-2.57484e-311
3.1774e-312
2.58125e-311
2.52442e-311
9.1693e-312
9.30468e-312
1.01795e-311
2.36514e-311
1.80992e-311
1.48581e-311
1.33001e-311
-2.84159e-312
1.23447e-312
9.25981e-313
-4.17391e-312
-5.55895e-313
4.75759e-312
2.7544e-311
2.49403e-311
3.12344e-311
3.70068e-311
1.97606e-311
1.89588e-311
-1.68691e-307
-1.38187e-307
-1.20502e-307
-1.06667e-307
-8.98431e-308
-6.86699e-308
-4.73959e-308
-2.98451e-308
-1.73678e-308
-9.45392e-309
-4.85569e-309
-2.38165e-309
-1.12599e-309
-5.19583e-310
-2.24375e-310
-9.07178e-311
-4.73181e-311
-2.2831e-311
-3.3949e-312
1.37525e-312
-1.51044e-312
-2.39763e-313
6.75091e-312
-8.31029e-312
-8.79516e-312
-8.73187e-312
-1.37579e-311
-1.04536e-311
-1.86457e-311
1.20892e-311
6.93078e-312
6.85733e-312
5.69274e-312
9.88764e-313
1.94995e-312
-7.35482e-312
-6.54733e-312
-8.88899e-312
-1.90365e-311
-2.98661e-311
-2.10385e-311
-2.7832e-311
-1.07242e-311
-1.45007e-311
1.92072e-312
-1.3005e-311
-1.03525e-311
-2.48234e-312
-8.37547e-312
6.78884e-312
7.82856e-312
2.45432e-311
8.6909e-312
9.49991e-312
-2.11088e-311
-4.04924e-311
-3.94845e-311
-3.75344e-311
-9.97583e-312
1.1116e-311
1.13829e-311
1.15524e-311
1.03459e-311
1.09873e-311
2.5138e-311
1.24184e-311
8.41235e-312
2.57954e-312
-1.49775e-311
-9.59973e-312
4.40469e-313
-5.35639e-313
7.07187e-313
1.42947e-311
3.24018e-311
3.85761e-311
1.58886e-311
2.99465e-311
2.42725e-311
4.37506e-312
-3.88973e-307
-3.18236e-307
-2.78703e-307
-2.483e-307
-2.10169e-307
-1.611e-307
-1.11239e-307
-6.99569e-308
-4.05671e-308
-2.19551e-308
-1.11922e-308
-5.43085e-309
-2.52575e-309
-1.13187e-309
-4.90938e-310
-2.07955e-310
-9.87144e-311
-3.91629e-311
-1.13106e-311
9.02739e-312
7.7084e-312
-1.21886e-311
-9.35326e-312
-7.4566e-312
-7.48121e-312
-1.16702e-311
-6.26765e-312
-2.40059e-311
-2.3318e-311
-7.5557e-313
1.8908e-312
-9.17196e-312
-1.52168e-312
-2.52212e-313
-5.7168e-313
-5.67009e-312
-1.4952e-311
-1.5577e-311
-2.02747e-311
-3.13534e-311
-2.23081e-311
-3.04119e-311
-1.57251e-311
-5.18446e-312
4.98125e-312
-7.55571e-312
-1.52279e-311
-1.00534e-311
-1.05648e-311
-4.52531e-312
1.16378e-311
7.67953e-312
1.20125e-311
1.29335e-311
-1.94691e-311
-3.51883e-311
-3.99281e-311
-3.80537e-311
-1.63416e-311
2.2151e-312
7.95559e-312
2.09912e-311
1.97669e-311
3.32994e-311
2.99955e-311
1.67431e-311
4.33282e-312
3.4061e-312
-4.64429e-312
2.1302e-312
-2.64874e-312
1.3751e-312
1.19311e-311
1.69196e-311
3.88403e-311
2.14955e-311
6.90269e-312
2.56709e-311
3.36636e-311
-2.34352e-311
-8.99448e-307
-7.3505e-307
-6.46102e-307
-5.78598e-307
-4.91855e-307
-3.77867e-307
-2.61091e-307
-1.63971e-307
-9.48165e-308
-5.10866e-308
-2.58911e-308
-1.24514e-308
-5.72956e-309
-2.53241e-309
-1.08566e-309
-4.57258e-310
-1.91027e-310
-8.58204e-311
-2.62475e-311
2.38855e-312
3.76035e-312
-1.51955e-311
-1.15261e-311
-5.61695e-312
-1.9561e-313
-1.43706e-311
-3.73396e-312