/*--------------------------------*- C++ -*----------------------------------*\
  =========                 |
  \\      /  F ield         | OpenFOAM: The Open Source CFD Toolbox
   \\    /   O peration     | Website:  https://openfoam.org
    \\  /    A nd           | Version:  11
     \\/     M anipulation  |
\*---------------------------------------------------------------------------*/
FoamFile
{
    format      ascii;
    class       volScalarField;
    location    "20";
    object      C;
}
// * * * * * * * * * * * * * * * * * * * * * * * * * * * * * * * * * * * * * //

dimensions      [0 0 0 1 0 0 0];

internalField   nonuniform List<scalar> 
503040
(
3.94208e-81
3.87712e-81
3.767e-81
3.62496e-81
3.46061e-81
3.28133e-81
3.09297e-81
2.9002e-81
2.7068e-81
2.51578e-81
2.32948e-81
2.14972e-81
1.97784e-81
1.81478e-81
1.66117e-81
1.51736e-81
1.38346e-81
1.25941e-81
1.14504e-81
1.04002e-81
9.43978e-82
8.56475e-82
7.7704e-82
7.0518e-82
6.40399e-82
5.82207e-82
5.30127e-82
4.83702e-82
4.42504e-82
4.06129e-82
3.74209e-82
3.46406e-82
3.22418e-82
3.01975e-82
2.84843e-82
2.70821e-82
2.59742e-82
2.51472e-82
2.45912e-82
2.42992e-82
2.42677e-82
2.44962e-82
2.49875e-82
2.57476e-82
2.67857e-82
2.81143e-82
2.97492e-82
3.17095e-82
3.40176e-82
3.66993e-82
3.97838e-82
4.33037e-82
4.72946e-82
5.17955e-82
5.68479e-82
6.24961e-82
6.87863e-82
7.5766e-82
8.34835e-82
9.19863e-82
1.0132e-81
1.11528e-81
1.22647e-81
1.34706e-81
1.47725e-81
1.61708e-81
1.76644e-81
1.925e-81
2.09214e-81
2.26696e-81
2.44813e-81
2.63391e-81
2.82199e-81
3.00947e-81
3.19267e-81
3.36704e-81
3.52689e-81
3.66505e-81
3.77216e-81
3.83535e-81
1.21401e-80
1.19896e-80
1.17189e-80
1.13539e-80
1.09167e-80
1.04263e-80
9.89892e-81
9.34839e-81
8.7863e-81
8.22234e-81
7.66448e-81
7.11912e-81
6.59135e-81
6.08503e-81
5.60301e-81
5.14724e-81
4.71893e-81
4.31865e-81
3.94649e-81
3.60208e-81
3.28476e-81
2.99361e-81
2.72753e-81
2.48532e-81
2.26566e-81
2.06725e-81
1.88874e-81
1.72884e-81
1.58629e-81
1.45991e-81
1.34857e-81
1.25125e-81
1.16702e-81
1.09503e-81
1.03454e-81
9.84936e-82
9.45669e-82
9.16314e-82
8.96548e-82
8.8615e-82
8.85002e-82
8.93092e-82
9.10507e-82
9.37439e-82
9.74183e-82
1.02114e-81
1.0788e-81
1.14778e-81
1.22878e-81
1.3226e-81
1.43015e-81
1.5524e-81
1.69044e-81
1.84542e-81
2.01855e-81
2.21109e-81
2.42432e-81
2.65955e-81
2.918e-81
3.20088e-81
3.50923e-81
3.84396e-81
4.20571e-81
4.59481e-81
5.0112e-81
5.45431e-81
5.92297e-81
6.41527e-81
6.92846e-81
7.45875e-81
8.00123e-81
8.54965e-81
9.09627e-81
9.63166e-81
1.01445e-80
1.06214e-80
1.10467e-80
1.14017e-80
1.1665e-80
1.18113e-80
2.09853e-80
2.07622e-80
2.03521e-80
1.97889e-80
1.91035e-80
1.83238e-80
1.74746e-80
1.65777e-80
1.56524e-80
1.47148e-80
1.3779e-80
1.28562e-80
1.1956e-80
1.10858e-80
1.02514e-80
9.45689e-81
8.70536e-81
7.99861e-81
7.33753e-81
6.72225e-81
6.15226e-81
5.62654e-81
5.1437e-81
4.70208e-81
4.29979e-81
3.93484e-81
3.6052e-81
3.3088e-81
3.04363e-81
2.80776e-81
2.59933e-81
2.41665e-81
2.25813e-81
2.12235e-81
2.00804e-81
1.91412e-81
1.83967e-81
1.78395e-81
1.74638e-81
1.72659e-81
1.72436e-81
1.73968e-81
1.77269e-81
1.82373e-81
1.89331e-81
1.98212e-81
2.09102e-81
2.22104e-81
2.37339e-81
2.54942e-81
2.75065e-81
2.97874e-81
3.23544e-81
3.52264e-81
3.84228e-81
4.19634e-81
4.58681e-81
5.0156e-81
5.48455e-81
5.99526e-81
6.54908e-81
7.14699e-81
7.78949e-81
8.47645e-81
9.20699e-81
9.97933e-81
1.07906e-80
1.16366e-80
1.25119e-80
1.34091e-80
1.43191e-80
1.52307e-80
1.61306e-80
1.70027e-80
1.78285e-80
1.85868e-80
1.92534e-80
1.9801e-80
2.01998e-80
2.04169e-80
3.07646e-80
3.04706e-80
2.99245e-80
2.91671e-80
2.82364e-80
2.71681e-80
2.59949e-80
2.47461e-80
2.34479e-80
2.21232e-80
2.07917e-80
1.94704e-80
1.81733e-80
1.69118e-80
1.56951e-80
1.45302e-80
1.34224e-80
1.23751e-80
1.13907e-80
1.04699e-80
9.61305e-81
8.81918e-81
8.08695e-81
7.41446e-81
6.79948e-81
6.2395e-81
5.7319e-81
5.27397e-81
4.86301e-81
4.49638e-81
4.17153e-81
3.88609e-81
3.63785e-81
3.42478e-81
3.24508e-81
3.09721e-81
2.97982e-81
2.89186e-81
2.8325e-81
2.80117e-81
2.79758e-81
2.82169e-81
2.87372e-81
2.95415e-81
3.06372e-81
3.20341e-81
3.37446e-81
3.57836e-81
3.8168e-81
4.09172e-81
4.40523e-81
4.75962e-81
5.15734e-81
5.60093e-81
6.093e-81
6.63616e-81
7.23296e-81
7.88579e-81
8.59685e-81
9.36794e-81
1.02004e-80
1.1095e-80
1.20517e-80
1.30695e-80
1.41464e-80
1.52787e-80
1.64614e-80
1.76878e-80
1.89489e-80
2.02335e-80
2.1528e-80
2.28161e-80
2.40784e-80
2.52927e-80
2.64335e-80
2.74723e-80
2.83773e-80
2.91139e-80
2.96449e-80
2.99308e-80
4.17596e-80
4.13911e-80
4.07025e-80
3.97414e-80
3.85535e-80
3.71819e-80
3.56669e-80
3.40452e-80
3.23502e-80
3.06114e-80
2.88547e-80
2.71027e-80
2.53742e-80
2.36852e-80
2.20485e-80
2.04745e-80
1.89708e-80
1.75432e-80
1.61956e-80
1.49302e-80
1.37477e-80
1.26481e-80
1.16301e-80
1.06919e-80
9.83091e-81
9.0444e-81
8.32923e-81
7.68214e-81
7.09979e-81
6.5789e-81
6.11626e-81
5.70884e-81
5.35377e-81
5.04845e-81
4.79054e-81
4.57799e-81
4.40905e-81
4.28232e-81
4.1967e-81
4.15146e-81
4.14618e-81
4.18081e-81
4.25565e-81
4.37132e-81
4.5288e-81
4.72938e-81
4.97469e-81
5.26666e-81
5.60751e-81
5.99973e-81
6.44604e-81
6.94935e-81
7.51275e-81
8.13941e-81
8.83252e-81
9.59524e-81
1.04306e-80
1.13412e-80
1.23296e-80
1.33975e-80
1.45461e-80
1.57755e-80
1.7085e-80
1.84722e-80
1.99336e-80
2.14635e-80
2.30544e-80
2.46963e-80
2.63765e-80
2.80798e-80
2.97876e-80
3.14782e-80
3.31262e-80
3.47029e-80
3.6176e-80
3.75096e-80
3.86647e-80
3.95992e-80
4.02688e-80
4.06271e-80
5.42682e-80
5.3818e-80
5.29734e-80
5.17899e-80
5.03211e-80
4.86185e-80
4.67303e-80
4.47011e-80
4.25716e-80
4.03785e-80
3.81543e-80
3.59272e-80
3.37217e-80
3.15584e-80
2.94543e-80
2.74232e-80
2.54759e-80
2.36206e-80
2.18631e-80
2.02071e-80
1.86546e-80
1.72062e-80
1.5861e-80
1.46174e-80
1.34728e-80
1.24243e-80
1.14683e-80
1.0601e-80
9.81861e-81
9.11716e-81
8.49281e-81
7.94187e-81
7.46085e-81
7.04655e-81
6.69606e-81
6.40683e-81
6.1767e-81
6.00388e-81
5.88702e-81
5.82517e-81
5.81782e-81
5.8649e-81
5.96678e-81
6.12423e-81
6.33847e-81
6.61113e-81
6.94422e-81
7.34014e-81
7.80163e-81
8.33174e-81
8.93379e-81
9.61132e-81
1.0368e-80
1.12076e-80
1.21339e-80
1.31505e-80
1.42607e-80
1.54676e-80
1.67734e-80
1.81799e-80
1.96877e-80
2.12963e-80
2.30038e-80
2.48065e-80
2.66988e-80
2.86728e-80
3.07178e-80
3.28205e-80
3.49643e-80
3.71292e-80
3.92914e-80
4.14234e-80
4.34936e-80
4.54664e-80
4.73022e-80
4.89576e-80
5.03856e-80
5.15363e-80
5.23575e-80
5.27953e-80
6.86189e-80
6.80766e-80
6.70568e-80
6.56238e-80
6.38406e-80
6.17677e-80
5.94622e-80
5.69775e-80
5.43623e-80
5.1661e-80
4.89132e-80
4.61538e-80
4.34129e-80
4.07164e-80
3.80859e-80
3.55392e-80
3.30905e-80
3.07506e-80
2.85276e-80
2.64272e-80
2.44525e-80
2.2605e-80
2.08848e-80
1.92902e-80
1.7819e-80
1.64679e-80
1.52331e-80
1.41104e-80
1.30954e-80
1.21835e-80
1.13704e-80
1.06516e-80
1.0023e-80
9.48078e-81
9.02149e-81
8.64204e-81
8.33981e-81
8.11265e-81
7.95889e-81
7.8774e-81
7.86754e-81
7.92924e-81
8.06291e-81
8.26951e-81
8.55051e-81
8.90786e-81
9.34399e-81
9.86178e-81
1.04645e-80
1.11558e-80
1.19395e-80
1.28199e-80
1.38013e-80
1.48879e-80
1.6084e-80
1.73936e-80
1.88204e-80
2.03675e-80
2.20372e-80
2.38308e-80
2.57483e-80
2.77885e-80
2.99479e-80
3.22212e-80
3.46005e-80
3.70753e-80
3.96316e-80
4.22522e-80
4.49162e-80
4.75983e-80
5.02693e-80
5.2895e-80
5.54372e-80
5.78527e-80
6.00939e-80
6.21091e-80
6.38427e-80
6.52359e-80
6.62275e-80
6.67547e-80
8.51827e-80
8.45351e-80
8.33152e-80
8.15978e-80
7.94567e-80
7.69627e-80
7.41833e-80
7.11814e-80
6.8015e-80
6.47372e-80
6.13954e-80
5.80317e-80
5.4683e-80
5.13808e-80
4.81519e-80
4.50184e-80
4.19983e-80
3.91056e-80
3.6351e-80
3.37422e-80
3.12838e-80
2.89786e-80
2.68273e-80
2.48288e-80
2.29809e-80
2.12803e-80
1.9723e-80
1.83043e-80
1.70194e-80
1.5863e-80
1.48301e-80
1.39156e-80
1.31148e-80
1.24231e-80
1.18365e-80
1.13514e-80
1.09646e-80
1.06737e-80
1.04766e-80
1.0372e-80
1.03592e-80
1.04379e-80
1.06088e-80
1.08729e-80
1.12321e-80
1.16885e-80
1.2245e-80
1.29051e-80
1.36725e-80
1.45515e-80
1.55467e-80
1.66628e-80
1.79047e-80
1.92774e-80
2.07855e-80
2.24334e-80
2.42252e-80
2.61638e-80
2.82515e-80
3.04891e-80
3.2876e-80
3.54095e-80
3.8085e-80
4.0895e-80
4.38291e-80
4.68737e-80
5.00113e-80
5.32203e-80
5.64747e-80
5.97438e-80
6.29918e-80
6.61777e-80
6.92554e-80
7.21733e-80
7.48751e-80
7.72994e-80
7.93808e-80
8.10503e-80
8.22363e-80
8.28658e-80
1.04384e-79
1.03615e-79
1.02165e-79
1.0012e-79
9.75672e-80
9.45894e-80
9.12658e-80
8.76705e-80
8.38722e-80
7.99336e-80
7.59112e-80
7.18555e-80
6.78104e-80
6.38143e-80
5.98997e-80
5.60936e-80
5.24183e-80
4.88913e-80
4.55263e-80
4.23332e-80
3.93186e-80
3.64864e-80
3.38383e-80
3.13738e-80
2.90909e-80
2.69863e-80
2.50557e-80
2.32941e-80
2.16959e-80
2.02556e-80
1.89672e-80
1.78249e-80
1.68235e-80
1.59575e-80
1.52224e-80
1.46139e-80
1.41284e-80
1.37629e-80
1.35151e-80
1.33834e-80
1.3367e-80
1.34656e-80
1.36799e-80
1.40112e-80
1.44614e-80
1.50333e-80
1.57302e-80
1.65561e-80
1.75152e-80
1.86126e-80
1.98534e-80
2.12431e-80
2.27872e-80
2.44912e-80
2.63603e-80
2.83993e-80
3.06123e-80
3.30025e-80
3.55718e-80
3.83204e-80
4.12469e-80
4.43475e-80
4.76154e-80
5.10411e-80
5.46114e-80
5.8309e-80
6.21125e-80
6.59954e-80
6.99261e-80
7.38674e-80
7.77764e-80
8.16042e-80
8.52957e-80
8.87901e-80
9.20206e-80
9.49149e-80
9.73963e-80
9.93839e-80
1.00794e-79
1.01542e-79
1.26716e-79
1.25805e-79
1.24087e-79
1.21663e-79
1.18633e-79
1.15096e-79
1.11143e-79
1.06862e-79
1.02334e-79
9.76327e-80
9.28252e-80
8.79712e-80
8.31234e-80
7.83274e-80
7.36222e-80
6.90408e-80
6.461e-80
6.03516e-80
5.62825e-80
5.24152e-80
4.87584e-80
4.53176e-80
4.20954e-80
3.9092e-80
3.63057e-80
3.37332e-80
3.137e-80
2.92107e-80
2.72491e-80
2.54789e-80
2.38935e-80
2.24864e-80
2.12514e-80
2.01825e-80
1.92743e-80
1.8522e-80
1.79213e-80
1.74688e-80
1.71618e-80
1.69984e-80
1.69777e-80
1.70994e-80
1.73642e-80
1.77737e-80
1.83301e-80
1.90365e-80
1.98969e-80
2.09156e-80
2.20977e-80
2.34489e-80
2.49751e-80
2.66824e-80
2.8577e-80
3.06651e-80
3.29524e-80
3.54441e-80
3.81445e-80
4.10568e-80
4.41825e-80
4.75213e-80
5.10707e-80
5.48253e-80
5.87765e-80
6.29121e-80
6.72156e-80
7.1666e-80
7.6237e-80
8.08966e-80
8.56069e-80
9.03233e-80
9.49949e-80
9.95634e-80
1.03964e-79
1.08124e-79
1.11966e-79
1.15404e-79
1.18348e-79
1.20705e-79
1.22375e-79
1.23259e-79
1.52747e-79
1.51672e-79
1.49642e-79
1.46777e-79
1.43192e-79
1.39004e-79
1.3432e-79
1.29243e-79
1.23868e-79
1.18282e-79
1.12565e-79
1.06786e-79
1.01008e-79
9.52851e-80
8.96646e-80
8.41854e-80
7.888e-80
7.37748e-80
6.88904e-80
6.42423e-80
5.98418e-80
5.56959e-80
5.18084e-80
4.81804e-80
4.48104e-80
4.16952e-80
3.883e-80
3.62088e-80
3.3825e-80
3.16715e-80
2.97408e-80
2.80256e-80
2.65188e-80
2.52137e-80
2.41038e-80
2.31838e-80
2.24488e-80
2.18948e-80
2.15187e-80
2.13184e-80
2.12926e-80
2.14412e-80
2.17648e-80
2.22653e-80
2.29453e-80
2.38084e-80
2.48589e-80
2.6102e-80
2.75436e-80
2.91899e-80
3.10476e-80
3.31239e-80
3.54256e-80
3.79595e-80
4.0732e-80
4.37487e-80
4.70141e-80
5.05314e-80
5.43017e-80
5.83241e-80
6.25947e-80
6.71065e-80
7.18487e-80
7.68061e-80
8.19585e-80
8.72803e-80
9.274e-80
9.82991e-80
1.03912e-79
1.09527e-79
1.15083e-79
1.2051e-79
1.25733e-79
1.30667e-79
1.35218e-79
1.39288e-79
1.42772e-79
1.45557e-79
1.4753e-79
1.48574e-79
1.83144e-79
1.81877e-79
1.79484e-79
1.76102e-79
1.71871e-79
1.66924e-79
1.61389e-79
1.55384e-79
1.49023e-79
1.42408e-79
1.35631e-79
1.28776e-79
1.21917e-79
1.15117e-79
1.08433e-79
1.01911e-79
9.55892e-80
8.95005e-80
8.36692e-80
7.81146e-80
7.28502e-80
6.78854e-80
6.32253e-80
5.88716e-80
5.48234e-80
5.10775e-80
4.76287e-80
4.44706e-80
4.15958e-80
3.89963e-80
3.66639e-80
3.45901e-80
3.27668e-80
3.11864e-80
2.98418e-80
2.87264e-80
2.78349e-80
2.71625e-80
2.67058e-80
2.64623e-80
2.64305e-80
2.66102e-80
2.70023e-80
2.76088e-80
2.84327e-80
2.94781e-80
3.07501e-80
3.22544e-80
3.39978e-80
3.59874e-80
3.82309e-80
4.07362e-80
4.35112e-80
4.65633e-80
4.98996e-80
5.35263e-80
5.74481e-80
6.1668e-80
6.61869e-80
7.1003e-80
7.6111e-80
8.15021e-80
8.71628e-80
9.30744e-80
9.92127e-80
1.05547e-79
1.12039e-79
1.18643e-79
1.25307e-79
1.31966e-79
1.3855e-79
1.44977e-79
1.51158e-79
1.56991e-79
1.6237e-79
1.67177e-79
1.71289e-79
1.74574e-79
1.76901e-79
1.78131e-79
2.18684e-79
2.17193e-79
2.14374e-79
2.1039e-79
2.05403e-79
1.9957e-79
1.93039e-79
1.85952e-79
1.7844e-79
1.70623e-79
1.62611e-79
1.54502e-79
1.46382e-79
1.38327e-79
1.30404e-79
1.22667e-79
1.15162e-79
1.07928e-79
1.00995e-79
9.4385e-80
8.81153e-80
8.21973e-80
7.66379e-80
7.14397e-80
6.66021e-80
6.2122e-80
5.79938e-80
5.42106e-80
5.07641e-80
4.76453e-80
4.48448e-80
4.23532e-80
4.01612e-80
3.82601e-80
3.66417e-80
3.52986e-80
3.42245e-80
3.34141e-80
3.28634e-80
3.25694e-80
3.25305e-80
3.27465e-80
3.32183e-80
3.39483e-80
3.49398e-80
3.61976e-80
3.77274e-80
3.9536e-80
4.1631e-80
4.40204e-80
4.67131e-80
4.97179e-80
5.30437e-80
5.6699e-80
6.06916e-80
6.50281e-80
6.97136e-80
7.47512e-80
8.01412e-80
8.58809e-80
9.19635e-80
9.83779e-80
1.05108e-79
1.1213e-79
1.19416e-79
1.26929e-79
1.34624e-79
1.42447e-79
1.50334e-79
1.58211e-79
1.65994e-79
1.73587e-79
1.80885e-79
1.8777e-79
1.94115e-79
1.99783e-79
2.04629e-79
2.08499e-79
2.11239e-79
2.12688e-79
2.60279e-79
2.58525e-79
2.55207e-79
2.50518e-79
2.44647e-79
2.37776e-79
2.30081e-79
2.21728e-79
2.12871e-79
2.0365e-79
1.94195e-79
1.8462e-79
1.75028e-79
1.65508e-79
1.56138e-79
1.46984e-79
1.38099e-79
1.29529e-79
1.2131e-79
1.13469e-79
1.06027e-79
9.89978e-80
9.23899e-80
8.62071e-80
8.04493e-80
7.51133e-80
7.01932e-80
6.56812e-80
6.15681e-80
5.78438e-80
5.44976e-80
5.15189e-80
4.88969e-80
4.66217e-80
4.46839e-80
4.30751e-80
4.17881e-80
4.08166e-80
4.01561e-80
3.98032e-80
3.9756e-80
4.00142e-80
4.05789e-80
4.14527e-80
4.26397e-80
4.41451e-80
4.59756e-80
4.81388e-80
5.06435e-80
5.3499e-80
5.67152e-80
6.03023e-80
6.42701e-80
6.86284e-80
7.33858e-80
7.85496e-80
8.41253e-80
9.01159e-80
9.65214e-80
1.03338e-79
1.10557e-79
1.18164e-79
1.26141e-79
1.34459e-79
1.43084e-79
1.51973e-79
1.61071e-79
1.70316e-79
1.79631e-79
1.88931e-79
1.98115e-79
2.07071e-79
2.15675e-79
2.23789e-79
2.31264e-79
2.37939e-79
2.43644e-79
2.48199e-79
2.51422e-79
2.53127e-79
3.08994e-79
3.06931e-79
3.0303e-79
2.97515e-79
2.90607e-79
2.82521e-79
2.73464e-79
2.63629e-79
2.53197e-79
2.42334e-79
2.3119e-79
2.19901e-79
2.08588e-79
1.97355e-79
1.86294e-79
1.75482e-79
1.64985e-79
1.54854e-79
1.45133e-79
1.35855e-79
1.27044e-79
1.18717e-79
1.10885e-79
1.03553e-79
9.67213e-80
9.03862e-80
8.45418e-80
7.91792e-80
7.42881e-80
6.98571e-80
6.5874e-80
6.23266e-80
5.92027e-80
5.64909e-80
5.41803e-80
5.22614e-80
5.07257e-80
4.95662e-80
4.87774e-80
4.83556e-80
4.82986e-80
4.8606e-80
4.9279e-80
5.03206e-80
5.17355e-80
5.35298e-80
5.57111e-80
5.82882e-80
6.12711e-80
6.46703e-80
6.84974e-80
7.27638e-80
7.74808e-80
8.26594e-80
8.83093e-80
9.44386e-80
1.01053e-79
1.08156e-79
1.15747e-79
1.2382e-79
1.32366e-79
1.41367e-79
1.50799e-79
1.60631e-79
1.70821e-79
1.81317e-79
1.92056e-79
2.02962e-79
2.13948e-79
2.24911e-79
2.35734e-79
2.46285e-79
2.56418e-79
2.6597e-79
2.74768e-79
2.82622e-79
2.89332e-79
2.9469e-79
2.9848e-79
3.00484e-79
3.66079e-79
3.63655e-79
3.59069e-79
3.52585e-79
3.44462e-79
3.34954e-79
3.243e-79
3.12729e-79
3.00452e-79
2.87665e-79
2.74544e-79
2.61248e-79
2.4792e-79
2.34683e-79
2.21643e-79
2.08893e-79
1.96509e-79
1.84553e-79
1.73076e-79
1.62117e-79
1.51706e-79
1.41862e-79
1.32599e-79
1.23924e-79
1.15837e-79
1.08334e-79
1.0141e-79
9.50534e-80
8.92535e-80
8.39968e-80
7.92697e-80
7.50579e-80
7.13477e-80
6.81257e-80
6.53797e-80
6.30984e-80
6.12721e-80
5.98929e-80
5.89543e-80
5.84519e-80
5.83834e-80
5.8748e-80
5.95475e-80
6.0785e-80
6.24661e-80
6.45978e-80
6.71887e-80
7.0249e-80
7.37902e-80
7.78246e-80
8.23651e-80
8.74249e-80
9.30171e-80
9.91539e-80
1.05846e-79
1.13104e-79
1.20932e-79
1.29335e-79
1.38311e-79
1.47853e-79
1.57949e-79
1.68579e-79
1.79714e-79
1.91316e-79
2.03335e-79
2.15712e-79
2.2837e-79
2.41222e-79
2.54163e-79
2.67073e-79
2.79814e-79
2.92233e-79
3.04155e-79
3.15394e-79
3.25741e-79
3.34976e-79
3.42866e-79
3.49164e-79
3.53619e-79
3.55973e-79
4.32999e-79
4.30151e-79
4.24763e-79
4.17143e-79
4.07596e-79
3.96419e-79
3.83893e-79
3.70287e-79
3.55849e-79
3.40807e-79
3.25369e-79
3.09723e-79
2.94034e-79
2.78449e-79
2.63092e-79
2.48072e-79
2.33479e-79
2.19386e-79
2.05854e-79
1.92928e-79
1.80644e-79
1.69026e-79
1.5809e-79
1.47843e-79
1.38288e-79
1.2942e-79
1.21232e-79
1.13714e-79
1.06851e-79
1.00629e-79
9.5032e-80
9.00435e-80
8.56478e-80
8.18294e-80
7.85742e-80
7.58692e-80
7.37033e-80
7.20671e-80
7.09532e-80
7.03566e-80
7.02744e-80
7.0706e-80
7.16531e-80
7.31196e-80
7.51117e-80
7.76376e-80
8.07072e-80
8.43324e-80
8.85262e-80
9.33029e-80
9.86773e-80
1.04665e-79
1.1128e-79
1.18537e-79
1.26448e-79
1.35025e-79
1.44273e-79
1.54196e-79
1.64792e-79
1.76053e-79
1.87963e-79
2.00499e-79
2.13626e-79
2.273e-79
2.41461e-79
2.56039e-79
2.70945e-79
2.86074e-79
3.01305e-79
3.16496e-79
3.31486e-79
3.46092e-79
3.60113e-79
3.73326e-79
3.85489e-79
3.96345e-79
4.05617e-79
4.13017e-79
4.18251e-79
4.21017e-79
5.11474e-79
5.08129e-79
5.01799e-79
4.92847e-79
4.8163e-79
4.68495e-79
4.53775e-79
4.37782e-79
4.20809e-79
4.03124e-79
3.84971e-79
3.66569e-79
3.48114e-79
3.29777e-79
3.11705e-79
2.94026e-79
2.76845e-79
2.60249e-79
2.4431e-79
2.29081e-79
2.14604e-79
2.00908e-79
1.88012e-79
1.75926e-79
1.64652e-79
1.54186e-79
1.44521e-79
1.35642e-79
1.27536e-79
1.20184e-79
1.13569e-79
1.07672e-79
1.02474e-79
9.7958e-80
9.41071e-80
9.09065e-80
8.83431e-80
8.64062e-80
8.50873e-80
8.43804e-80
8.42822e-80
8.47919e-80
8.59116e-80
8.76458e-80
9.00015e-80
9.29884e-80
9.66179e-80
1.00904e-79
1.05861e-79
1.11506e-79
1.17856e-79
1.24928e-79
1.3274e-79
1.41308e-79
1.50646e-79
1.60766e-79
1.71675e-79
1.83377e-79
1.9587e-79
2.09142e-79
2.23177e-79
2.37945e-79
2.53405e-79
2.69505e-79
2.86176e-79
3.03332e-79
3.20871e-79
3.3867e-79
3.56584e-79
3.74449e-79
3.92073e-79
4.09244e-79
4.25724e-79
4.41253e-79
4.55546e-79
4.68301e-79
4.79194e-79
4.87888e-79
4.94035e-79
4.97284e-79
6.03521e-79
5.99593e-79
5.92158e-79
5.81642e-79
5.68466e-79
5.53035e-79
5.3574e-79
5.16948e-79
4.97002e-79
4.76217e-79
4.54879e-79
4.33247e-79
4.11548e-79
3.89985e-79
3.68731e-79
3.47934e-79
3.2772e-79
3.08192e-79
2.89431e-79
2.71503e-79
2.54457e-79
2.38327e-79
2.23136e-79
2.08895e-79
1.95608e-79
1.83271e-79
1.71875e-79
1.61404e-79
1.51841e-79
1.43167e-79
1.3536e-79
1.28399e-79
1.22263e-79
1.1693e-79
1.12382e-79
1.08601e-79
1.05572e-79
1.03283e-79
1.01724e-79
1.00888e-79
1.00771e-79
1.01372e-79
1.02694e-79
1.04741e-79
1.07522e-79
1.11048e-79
1.15333e-79
1.20392e-79
1.26242e-79
1.32904e-79
1.40395e-79
1.48738e-79
1.57951e-79
1.68054e-79
1.79062e-79
1.90989e-79
2.03843e-79
2.17629e-79
2.32343e-79
2.47973e-79
2.64495e-79
2.81878e-79
3.00072e-79
3.19015e-79
3.38626e-79
3.58805e-79
3.7943e-79
4.00358e-79
4.21418e-79
4.42417e-79
4.6313e-79
4.83309e-79
5.02673e-79
5.20918e-79
5.3771e-79
5.52693e-79
5.65487e-79
5.75698e-79
5.82918e-79
5.86733e-79
7.11507e-79
7.06894e-79
6.98162e-79
6.85813e-79
6.70336e-79
6.52212e-79
6.31896e-79
6.09821e-79
5.86387e-79
5.61965e-79
5.36892e-79
5.1147e-79
4.85967e-79
4.60621e-79
4.35635e-79
4.11183e-79
3.87413e-79
3.64446e-79
3.42378e-79
3.21286e-79
3.01229e-79
2.82246e-79
2.64365e-79
2.47599e-79
2.31954e-79
2.17425e-79
2.04e-79
1.91663e-79
1.80395e-79
1.70172e-79
1.60969e-79
1.52762e-79
1.45525e-79
1.39236e-79
1.33871e-79
1.2941e-79
1.25837e-79
1.23136e-79
1.21295e-79
1.20308e-79
1.20168e-79
1.20876e-79
1.22434e-79
1.24848e-79
1.28127e-79
1.32285e-79
1.37337e-79
1.43301e-79
1.50198e-79
1.58049e-79
1.66878e-79
1.76708e-79
1.87563e-79
1.99463e-79
2.12427e-79
2.26471e-79
2.41605e-79
2.57833e-79
2.75149e-79
2.9354e-79
3.12979e-79
3.33426e-79
3.54825e-79
3.77101e-79
4.00159e-79
4.23881e-79
4.48125e-79
4.72722e-79
4.97472e-79
5.22146e-79
5.46483e-79
5.70189e-79
5.92936e-79
6.14367e-79
6.3409e-79
6.51686e-79
6.66712e-79
6.78702e-79
6.8718e-79
6.9166e-79
8.38209e-79
8.32792e-79
8.22539e-79
8.08037e-79
7.89862e-79
7.68576e-79
7.44716e-79
7.18788e-79
6.91262e-79
6.62574e-79
6.33118e-79
6.0325e-79
5.73285e-79
5.43501e-79
5.14137e-79
4.85399e-79
4.57458e-79
4.30458e-79
4.04512e-79
3.79711e-79
3.56122e-79
3.33795e-79
3.1276e-79
2.93035e-79
2.74625e-79
2.57525e-79
2.41723e-79
2.272e-79
2.13933e-79
2.01894e-79
1.91055e-79
1.81388e-79
1.72863e-79
1.65453e-79
1.59131e-79
1.53874e-79
1.49662e-79
1.46478e-79
1.44308e-79
1.43142e-79
1.42977e-79
1.4381e-79
1.45644e-79
1.48488e-79
1.52351e-79
1.57248e-79
1.63198e-79
1.70223e-79
1.78345e-79
1.87591e-79
1.97986e-79
2.0956e-79
2.22337e-79
2.36343e-79
2.516e-79
2.68126e-79
2.85931e-79
3.05021e-79
3.25388e-79
3.47017e-79
3.69875e-79
3.93915e-79
4.1907e-79
4.45254e-79
4.72354e-79
5.00232e-79
5.28721e-79
5.5762e-79
5.86698e-79
6.15683e-79
6.44271e-79
6.72115e-79
6.98832e-79
7.24e-79
7.47161e-79
7.67824e-79
7.85468e-79
7.99547e-79
8.09501e-79
8.1476e-79
9.86886e-79
9.80526e-79
9.68488e-79
9.51459e-79
9.30118e-79
9.05122e-79
8.77102e-79
8.46652e-79
8.14325e-79
7.80631e-79
7.46033e-79
7.10948e-79
6.75748e-79
6.40757e-79
6.06257e-79
5.7249e-79
5.39657e-79
5.07926e-79
4.77432e-79
4.4828e-79
4.2055e-79
3.943e-79
3.69567e-79
3.46371e-79
3.24719e-79
3.04606e-79
2.86018e-79
2.68931e-79
2.5332e-79
2.39153e-79
2.26397e-79
2.15018e-79
2.04982e-79
1.96257e-79
1.88814e-79
1.82624e-79
1.77663e-79
1.73913e-79
1.71356e-79
1.69983e-79
1.69787e-79
1.70766e-79
1.72925e-79
1.76271e-79
1.80817e-79
1.86582e-79
1.93585e-79
2.01852e-79
2.1141e-79
2.2229e-79
2.34522e-79
2.48138e-79
2.6317e-79
2.79645e-79
2.9759e-79
3.17024e-79
3.37962e-79
3.60407e-79
3.84352e-79
4.09776e-79
4.36643e-79
4.64897e-79
4.94459e-79
5.25226e-79
5.57067e-79
5.8982e-79
6.23287e-79
6.57235e-79
6.91388e-79
7.25432e-79
7.59006e-79
7.91705e-79
8.23079e-79
8.52633e-79
8.79829e-79
9.04091e-79
9.24806e-79
9.41336e-79
9.53022e-79
9.59197e-79
1.16137e-78
1.1539e-78
1.13976e-78
1.11977e-78
1.09471e-78
1.06536e-78
1.03246e-78
9.96705e-79
9.58742e-79
9.19173e-79
8.78541e-79
8.37335e-79
7.95991e-79
7.54891e-79
7.14366e-79
6.74698e-79
6.36125e-79
5.98844e-79
5.63014e-79
5.28758e-79
4.9617e-79
4.65319e-79
4.36248e-79
4.08981e-79
3.83528e-79
3.5988e-79
3.38023e-79
3.17931e-79
2.99571e-79
2.82908e-79
2.67903e-79
2.54517e-79
2.42711e-79
2.32445e-79
2.23687e-79
2.16402e-79
2.10564e-79
2.06149e-79
2.0314e-79
2.01522e-79
2.0129e-79
2.02441e-79
2.04979e-79
2.08915e-79
2.14263e-79
2.21043e-79
2.2928e-79
2.39004e-79
2.50246e-79
2.63041e-79
2.77426e-79
2.93438e-79
3.11112e-79
3.30483e-79
3.51579e-79
3.74425e-79
3.99035e-79
4.25415e-79
4.53555e-79
4.83432e-79
5.15001e-79
5.48197e-79
5.82928e-79
6.19072e-79
6.56475e-79
6.94946e-79
7.34254e-79
7.74124e-79
8.14234e-79
8.54213e-79
8.93638e-79
9.32034e-79
9.68873e-79
1.00357e-78
1.0355e-78
1.06399e-78
1.08831e-78
1.10771e-78
1.12143e-78
1.12868e-78
1.36614e-78
1.35737e-78
1.34078e-78
1.3173e-78
1.28788e-78
1.25342e-78
1.21479e-78
1.17281e-78
1.12823e-78
1.08177e-78
1.03405e-78
9.85664e-79
9.3711e-79
8.88841e-79
8.41244e-79
7.94652e-79
7.49345e-79
7.05552e-79
6.6346e-79
6.23216e-79
5.84929e-79
5.4868e-79
5.1452e-79
4.82478e-79
4.52564e-79
4.24771e-79
3.9908e-79
3.75461e-79
3.53878e-79
3.34288e-79
3.16646e-79
3.00906e-79
2.87022e-79
2.7495e-79
2.64649e-79
2.56081e-79
2.49214e-79
2.4402e-79
2.40479e-79
2.38575e-79
2.383e-79
2.39652e-79
2.42635e-79
2.47262e-79
2.53549e-79
2.6152e-79
2.71205e-79
2.82637e-79
2.95853e-79
3.10894e-79
3.27804e-79
3.46624e-79
3.67398e-79
3.90164e-79
4.14956e-79
4.41803e-79
4.70721e-79
5.01716e-79
5.34778e-79
5.69878e-79
6.06963e-79
6.45958e-79
6.86752e-79
7.29204e-79
7.73133e-79
8.18313e-79
8.64474e-79
9.11293e-79
9.58392e-79
1.00533e-78
1.05163e-78
1.09671e-78
1.13996e-78
1.1807e-78
1.21819e-78
1.25163e-78
1.28018e-78
1.30296e-78
1.31906e-78
1.32757e-78
1.60647e-78
1.59618e-78
1.5767e-78
1.54914e-78
1.5146e-78
1.47414e-78
1.42878e-78
1.37949e-78
1.32715e-78
1.2726e-78
1.21657e-78
1.15975e-78
1.10274e-78
1.04605e-78
9.90158e-79
9.35441e-79
8.8223e-79
8.30796e-79
7.81357e-79
7.34086e-79
6.89112e-79
6.46528e-79
6.06397e-79
5.68753e-79
5.33606e-79
5.00949e-79
4.70761e-79
4.43005e-79
4.1764e-79
3.94616e-79
3.7388e-79
3.55379e-79
3.39059e-79
3.24867e-79
3.12757e-79
3.02683e-79
2.94609e-79
2.88502e-79
2.84337e-79
2.82096e-79
2.81771e-79
2.83358e-79
2.86863e-79
2.923e-79
2.99689e-79
3.09057e-79
3.20439e-79
3.33874e-79
3.49405e-79
3.67082e-79
3.86952e-79
4.09067e-79
4.33476e-79
4.60224e-79
4.89353e-79
5.20892e-79
5.54864e-79
5.91274e-79
6.30109e-79
6.71336e-79
7.14894e-79
7.60691e-79
8.086e-79
8.58453e-79
9.10038e-79
9.63092e-79
1.01729e-78
1.07227e-78
1.12757e-78
1.18268e-78
1.23703e-78
1.28996e-78
1.34074e-78
1.38856e-78
1.43257e-78
1.47183e-78
1.50534e-78
1.53209e-78
1.55099e-78
1.56098e-78
1.88856e-78
1.87647e-78
1.8536e-78
1.82125e-78
1.7807e-78
1.7332e-78
1.67995e-78
1.62208e-78
1.56063e-78
1.49657e-78
1.43079e-78
1.36408e-78
1.29713e-78
1.23058e-78
1.16494e-78
1.10069e-78
1.0382e-78
9.778e-79
9.19739e-79
8.64222e-79
8.114e-79
7.61384e-79
7.14246e-79
6.70027e-79
6.2874e-79
5.90377e-79
5.54911e-79
5.22302e-79
4.925e-79
4.65447e-79
4.41082e-79
4.19341e-79
4.00162e-79
3.83484e-79
3.6925e-79
3.5741e-79
3.4792e-79
3.4074e-79
3.35844e-79
3.33209e-79
3.32824e-79
3.34687e-79
3.38804e-79
3.45191e-79
3.53872e-79
3.64879e-79
3.78251e-79
3.94035e-79
4.12283e-79
4.33049e-79
4.56393e-79
4.82373e-79
5.11046e-79
5.42467e-79
5.76682e-79
6.13727e-79
6.53628e-79
6.96391e-79
7.42e-79
7.90416e-79
8.41568e-79
8.95347e-79
9.51604e-79
1.01014e-78
1.07071e-78
1.133e-78
1.19664e-78
1.26119e-78
1.32611e-78
1.39082e-78
1.45462e-78
1.51675e-78
1.57636e-78
1.63251e-78
1.68417e-78
1.73025e-78
1.7696e-78
1.80099e-78
1.82318e-78
1.8349e-78
2.21965e-78
2.20547e-78
2.17862e-78
2.14064e-78
2.09303e-78
2.03727e-78
1.97476e-78
1.90681e-78
1.83467e-78
1.75947e-78
1.68224e-78
1.60391e-78
1.52531e-78
1.44716e-78
1.37009e-78
1.29465e-78
1.22128e-78
1.15035e-78
1.08217e-78
1.01697e-78
9.54942e-79
8.96204e-79
8.40844e-79
7.88909e-79
7.40417e-79
6.95357e-79
6.53698e-79
6.15394e-79
5.80385e-79
5.48604e-79
5.1998e-79
4.94438e-79
4.71905e-79
4.52309e-79
4.35585e-79
4.21673e-79
4.1052e-79
4.02083e-79
3.96327e-79
3.93229e-79
3.92775e-79
3.94961e-79
3.99796e-79
4.07298e-79
4.17494e-79
4.30422e-79
4.4613e-79
4.6467e-79
4.86103e-79
5.10495e-79
5.37914e-79
5.68428e-79
6.02105e-79
6.39007e-79
6.7919e-79
7.22696e-79
7.69553e-79
8.1977e-79
8.73328e-79
9.3018e-79
9.90242e-79
1.05339e-78
1.11944e-78
1.18817e-78
1.25929e-78
1.33242e-78
1.40713e-78
1.4829e-78
1.55912e-78
1.63509e-78
1.70999e-78
1.78293e-78
1.8529e-78
1.91881e-78
1.97945e-78
2.03355e-78
2.07973e-78
2.11658e-78
2.14263e-78
2.15639e-78
2.60829e-78
2.59164e-78
2.56012e-78
2.51553e-78
2.45964e-78
2.39418e-78
2.32079e-78
2.24102e-78
2.15633e-78
2.06804e-78
1.97737e-78
1.88541e-78
1.79313e-78
1.70138e-78
1.6109e-78
1.52232e-78
1.43617e-78
1.35288e-78
1.27283e-78
1.19627e-78
1.12343e-78
1.05446e-78
9.89449e-79
9.2846e-79
8.71512e-79
8.18592e-79
7.69666e-79
7.24678e-79
6.83559e-79
6.46231e-79
6.12609e-79
5.82607e-79
5.56137e-79
5.33118e-79
5.13471e-79
4.97126e-79
4.84023e-79
4.7411e-79
4.67346e-79
4.63704e-79
4.63168e-79
4.65733e-79
4.7141e-79
4.80219e-79
4.92192e-79
5.07375e-79
5.25822e-79
5.47596e-79
5.72768e-79
6.01413e-79
6.33613e-79
6.69447e-79
7.08995e-79
7.52329e-79
7.99514e-79
8.50601e-79
9.05621e-79
9.64585e-79
1.02747e-78
1.09422e-78
1.16474e-78
1.23888e-78
1.31643e-78
1.39712e-78
1.48061e-78
1.56646e-78
1.65417e-78
1.74312e-78
1.8326e-78
1.92177e-78
2.0097e-78
2.09532e-78
2.17746e-78
2.25482e-78
2.32601e-78
2.38951e-78
2.44372e-78
2.48697e-78
2.51755e-78
2.5337e-78
3.06447e-78
3.04492e-78
3.00792e-78
2.95557e-78
2.88997e-78
2.81312e-78
2.72696e-78
2.63332e-78
2.53389e-78
2.43025e-78
2.3238e-78
2.21584e-78
2.1075e-78
1.99978e-78
1.89355e-78
1.78955e-78
1.6884e-78
1.59062e-78
1.49663e-78
1.40674e-78
1.32122e-78
1.24023e-78
1.16389e-78
1.09227e-78
1.0254e-78
9.63257e-79
9.05801e-79
8.52969e-79
8.0468e-79
7.60841e-79
7.21354e-79
6.86117e-79
6.55028e-79
6.2799e-79
6.04913e-79
5.85714e-79
5.70322e-79
5.58676e-79
5.50729e-79
5.46449e-79
5.45816e-79
5.48826e-79
5.5549e-79
5.65832e-79
5.79891e-79
5.9772e-79
6.19381e-79
6.44949e-79
6.74506e-79
7.08143e-79
7.45953e-79
7.88029e-79
8.34466e-79
8.85348e-79
9.4075e-79
1.00073e-78
1.06533e-78
1.13456e-78
1.20839e-78
1.28676e-78
1.36955e-78
1.45659e-78
1.54763e-78
1.64236e-78
1.74037e-78
1.84115e-78
1.94412e-78
2.04854e-78
2.15357e-78
2.25825e-78
2.36146e-78
2.46196e-78
2.55838e-78
2.6492e-78
2.73275e-78
2.80729e-78
2.87092e-78
2.92169e-78
2.95758e-78
2.97654e-78
3.59994e-78
3.57699e-78
3.53355e-78
3.47211e-78
3.39509e-78
3.30488e-78
3.20374e-78
3.09381e-78
2.97708e-78
2.8554e-78
2.73044e-78
2.6037e-78
2.47651e-78
2.35004e-78
2.22533e-78
2.10323e-78
1.98448e-78
1.86968e-78
1.75933e-78
1.65379e-78
1.55338e-78
1.45828e-78
1.36866e-78
1.28457e-78
1.20604e-78
1.13308e-78
1.06561e-78
1.00357e-78
9.46866e-79
8.95386e-79
8.49015e-79
8.07634e-79
7.71123e-79
7.3937e-79
7.12267e-79
6.89718e-79
6.71639e-79
6.5796e-79
6.48624e-79
6.43594e-79
6.42847e-79
6.46379e-79
6.542e-79
6.66342e-79
6.82848e-79
7.0378e-79
7.29213e-79
7.59233e-79
7.93937e-79
8.3343e-79
8.77823e-79
9.27225e-79
9.81746e-79
1.04148e-78
1.10653e-78
1.17695e-78
1.25279e-78
1.33407e-78
1.42074e-78
1.51275e-78
1.60994e-78
1.71211e-78
1.81899e-78
1.93019e-78
2.04524e-78
2.16356e-78
2.28442e-78
2.407e-78
2.53029e-78
2.65316e-78
2.77431e-78
2.89229e-78
3.00547e-78
3.11206e-78
3.21014e-78
3.29763e-78
3.37232e-78
3.43191e-78
3.47404e-78
3.49629e-78
4.22848e-78
4.20155e-78
4.15056e-78
4.07842e-78
3.98802e-78
3.88211e-78
3.76338e-78
3.63433e-78
3.49731e-78
3.35446e-78
3.20776e-78
3.05897e-78
2.90966e-78
2.7612e-78
2.61478e-78
2.47144e-78
2.33203e-78
2.19725e-78
2.06769e-78
1.94379e-78
1.8259e-78
1.71425e-78
1.60902e-78
1.51029e-78
1.4181e-78
1.33242e-78
1.25321e-78
1.18036e-78
1.11378e-78
1.05333e-78
9.9888e-79
9.50288e-79
9.07414e-79
8.70126e-79
8.38298e-79
8.11817e-79
7.90585e-79
7.74518e-79
7.63552e-79
7.57642e-79
7.56761e-79
7.60903e-79
7.70083e-79
7.84336e-79
8.03713e-79
8.28288e-79
8.58146e-79
8.93389e-79
9.34133e-79
9.80499e-79
1.03262e-78
1.09062e-78
1.15462e-78
1.22476e-78
1.30112e-78
1.38379e-78
1.47283e-78
1.56824e-78
1.66999e-78
1.77799e-78
1.89209e-78
2.01203e-78
2.13749e-78
2.26803e-78
2.40308e-78
2.54196e-78