/*--------------------------------*- C++ -*----------------------------------*\
  =========                 |
  \\      /  F ield         | OpenFOAM: The Open Source CFD Toolbox
   \\    /   O peration     | Website:  https://openfoam.org
    \\  /    A nd           | Version:  11
     \\/     M anipulation  |
\*---------------------------------------------------------------------------*/
FoamFile
{
    format      ascii;
    class       volScalarField;
    location    "20";
    object      C;
}
// * * * * * * * * * * * * * * * * * * * * * * * * * * * * * * * * * * * * * //

dimensions      [0 0 0 1 0 0 0];

internalField   nonuniform List<scalar> 
332800
(
5.8423e-211
5.06628e-211
3.99661e-211
2.93214e-211
2.0262e-211
1.32961e-211
8.33265e-212
5.00824e-212
2.8963e-212
1.61582e-212
8.71506e-213
4.55266e-213
2.30706e-213
1.13566e-213
5.43703e-214
2.53441e-214
1.15141e-214
5.10295e-215
2.20812e-215
9.33652e-216
3.86048e-216
1.5621e-216
6.19002e-217
2.40377e-217
9.15402e-218
3.42098e-218
1.25549e-218
4.52818e-219
1.6063e-219
5.60918e-220
1.93006e-220
6.55142e-221
2.19672e-221
7.28783e-222
2.3971e-222
7.83659e-223
2.55432e-223
8.33265e-224
2.7331e-224
9.06097e-225
3.05371e-225
1.05217e-225
3.72481e-226
1.35986e-226
5.13019e-227
2.00283e-227
8.15782e-228
3.68313e-228
2.46417e-228
3.69296e-228
9.19467e-228
2.56314e-227
7.18782e-227
1.98956e-226
5.4155e-226
1.44781e-225
3.79871e-225
9.7745e-225
2.46484e-224
6.0872e-224
1.47119e-223
3.47718e-223
8.03075e-223
1.81095e-222
3.98386e-222
8.54174e-222
1.7832e-221
3.62063e-221
7.14116e-221
1.36634e-220
2.53206e-220
4.53649e-220
7.84086e-220
1.30397e-219
2.07981e-219
3.16809e-219
4.58271e-219
6.24382e-219
7.91133e-219
9.11641e-219
2.17097e-210
1.95286e-210
1.62132e-210
1.26023e-210
9.25698e-211
6.46828e-211
4.3205e-211
2.76923e-211
1.70842e-211
1.01704e-211
5.85499e-212
3.26557e-212
1.76744e-212
9.29647e-213
4.75826e-213
2.3728e-213
1.1541e-213
5.48084e-214
2.54394e-214
1.15514e-214
5.13594e-215
2.23797e-215
9.56554e-216
4.01379e-216
1.65485e-216
6.7095e-217
2.67742e-217
1.05248e-217
4.07914e-218
1.56018e-218
5.89447e-219
2.20193e-219
8.14158e-220
2.98287e-220
1.08415e-220
3.91399e-221
1.40544e-221
5.02685e-222
1.79371e-222
6.39609e-223
2.28334e-223
8.17639e-224
2.94296e-224
1.06705e-224
3.90648e-225
1.44851e-225
5.48291e-226
2.20525e-226
1.15719e-226
1.25551e-226
2.60224e-226
6.51206e-226
1.6673e-225
4.23358e-225
1.05998e-224
2.61255e-224
6.33257e-224
1.50822e-223
3.52655e-223
8.08839e-223
1.81814e-222
4.00186e-222
8.61723e-222
1.81357e-221
3.72675e-221
7.46962e-221
1.45866e-220
2.77186e-220
5.11893e-220
9.1737e-220
1.59279e-219
2.67436e-219
4.33306e-219
6.75745e-219
1.01124e-218
1.44663e-218
1.96864e-218
2.53173e-218
3.04819e-218
3.38669e-218
4.77797e-210
4.34869e-210
3.67962e-210
2.92992e-210
2.21322e-210
1.59513e-210
1.10162e-210
7.31432e-211
4.6816e-211
2.89509e-211
1.73303e-211
1.00588e-211
5.66926e-212
3.10686e-212
1.65753e-212
8.61865e-213
4.37233e-213
2.16632e-213
1.04926e-213
4.97269e-214
2.30802e-214
1.05004e-214
4.68662e-215
2.05385e-215
8.845e-216
3.74634e-216
1.56192e-216
6.41537e-217
2.59815e-217
1.0384e-217
4.09928e-218
1.5999e-218
6.17912e-219
2.36394e-219
8.9674e-220
3.3766e-220
1.26347e-220
4.70362e-221
1.74433e-221
6.45249e-222
2.38418e-222
8.81259e-223
3.26369e-223
1.21305e-223
4.53314e-224
1.70723e-224
6.51553e-225
2.58527e-225
1.22092e-225
1.0308e-225
1.79566e-225
4.16902e-225
1.01589e-224
2.46654e-224
5.91036e-224
1.39451e-223
3.23625e-223
7.38059e-223
1.65272e-222
3.63081e-222
7.81861e-222
1.64892e-221
3.40269e-221
6.86437e-221
1.35243e-220
2.59974e-220
4.87063e-220
8.88359e-220
1.57547e-219
2.71313e-219
4.53034e-219
7.32266e-219
1.14356e-218
1.72158e-218
2.49177e-218
3.45586e-218
4.57314e-218
5.7411e-218
6.78239e-218
7.44812e-218
9.34932e-210
8.55287e-210
7.30106e-210
5.88344e-210
4.51045e-210
3.30783e-210
2.33009e-210
1.5815e-210
1.03685e-210
6.57948e-211
4.04798e-211
2.41821e-211
1.40449e-211
7.94004e-212
4.37388e-212
2.35009e-212
1.23278e-212
6.31915e-213
3.16799e-213
1.55463e-213
7.47389e-214
3.52287e-214
1.6294e-214
7.40094e-215
3.30385e-215
1.45069e-215
6.27044e-216
2.67019e-216
1.12114e-216
4.64533e-217
1.90097e-217
7.68974e-218
3.0776e-218
1.21975e-218
4.79178e-219
1.86774e-219
7.23045e-220
2.78296e-220
1.06615e-220
4.07003e-221
1.55016e-221
5.89802e-222
2.24474e-222
8.55791e-223
3.27324e-223
1.25842e-223
4.88271e-224
1.94451e-224
8.67848e-225
5.97559e-225
8.53533e-225
1.81863e-224
4.23237e-224
9.89397e-224
2.28611e-223
5.20299e-223
1.16488e-222
2.56327e-222
5.53915e-222
1.17456e-221
2.44198e-221
4.9738e-221
9.91639e-221
1.93362e-220
3.6844e-220
6.854e-220
1.24364e-219
2.19881e-219
3.78407e-219
6.33141e-219
1.02861e-218
1.62021e-218
2.47016e-218
3.63772e-218
5.16182e-218
7.03539e-218
9.1731e-218
1.13788e-217
1.33245e-217
1.45581e-217
1.75424e-209
1.60866e-209
1.37912e-209
1.1181e-209
8.63913e-210
6.39705e-210
4.55826e-210
3.13543e-210
2.08712e-210
1.34715e-210
8.4451e-211
5.14888e-211
3.05668e-211
1.76876e-211
9.98552e-212
5.5047e-212
2.96559e-212
1.56257e-212
8.05837e-213
4.07057e-213
2.01548e-213
9.78894e-214
4.66703e-214
2.18581e-214
1.00639e-214
4.55858e-215
2.03294e-215
8.93263e-216
3.87018e-216
1.6547e-216
6.98703e-217
2.91611e-217
1.20397e-217
4.92159e-218
1.99367e-218
8.01038e-219
3.19533e-219
1.26667e-219
4.99503e-220
1.96153e-220
7.67908e-221
3.0004e-221
1.17145e-221
4.57606e-222
1.79088e-222
7.03329e-223
2.78041e-223
1.11921e-223
4.85962e-224
2.87808e-224
3.33435e-224
6.4004e-224
1.41996e-223
3.20673e-223
7.17728e-223
1.58331e-222
3.43693e-222
7.33466e-222
1.53766e-221
3.16442e-221
6.38794e-221
1.26399e-220
2.44979e-220
4.64719e-220
8.62192e-220
1.56325e-219
2.76767e-219
4.78061e-219
8.04881e-219
1.31949e-218
2.10378e-218
3.25773e-218
4.89156e-218
7.10778e-218
9.97018e-218
1.34582e-217
1.74102e-217
2.14655e-217
2.50279e-217
2.72796e-217
3.23416e-209
2.96924e-209
2.55103e-209
2.07465e-209
1.60965e-209
1.19821e-209
8.59384e-210
5.95811e-210
4.00323e-210
2.61206e-210
1.65787e-210
1.02496e-210
6.17949e-211
3.63677e-211
2.09108e-211
1.17558e-211
6.46658e-212
3.48276e-212
1.83773e-212
9.50651e-213
4.82409e-213
2.40291e-213
1.17561e-213
5.65286e-214
2.67326e-214
1.24414e-214
5.70229e-215
2.57562e-215
1.14731e-215
5.04377e-216
2.18995e-216
9.3983e-217
3.98971e-217
1.67673e-217
6.98185e-218
2.88295e-218
1.18153e-218
4.81055e-219
1.94756e-219
7.84803e-220
3.15096e-220
1.26182e-220
5.0455e-221
2.01678e-221
8.06855e-222
3.23551e-222
1.30369e-222
5.32126e-223
2.28658e-223
1.22147e-223
1.15706e-223
1.95821e-223
4.11802e-223
8.99811e-223
1.95745e-222
4.20183e-222
8.87995e-222
1.8458e-221
3.77091e-221
7.5668e-221
1.49041e-220
2.87973e-220
5.45482e-220
1.01231e-219
1.83939e-219
3.27016e-219
5.68446e-219
9.65381e-219
1.60038e-218
2.58722e-218
4.07409e-218
6.24055e-218
9.28297e-218
1.33824e-217
1.8649e-217
2.50401e-217
3.22583e-217
3.96479e-217
4.61283e-217
5.02192e-217
5.91521e-209
5.43388e-209
4.67363e-209
3.80698e-209
2.96019e-209
2.20986e-209
1.59075e-209
1.1079e-209
7.48543e-210
4.91693e-210
3.14552e-210
1.96264e-210
1.19579e-210
7.12157e-211
4.1493e-211
2.36687e-211
1.32271e-211
7.24615e-212
3.89356e-212
2.05316e-212
1.06307e-212
5.40758e-213
2.70381e-213
1.3296e-213
6.43406e-214
3.06564e-214
1.4391e-214
6.65991e-215
3.04038e-215
1.37013e-215
6.09905e-216
2.68375e-216
1.16819e-216
5.03394e-217
2.14912e-217
9.09743e-218
3.82158e-218
1.59443e-218
6.61286e-219
2.72893e-219
1.12158e-219
4.59542e-220
1.87901e-220
7.67542e-221
3.13572e-221
1.28293e-221
5.26731e-222
2.18312e-222
9.37762e-223
4.68859e-223
3.72086e-223
5.44558e-223
1.07556e-222
2.27401e-222
4.82105e-222
1.01044e-221
2.08666e-221
4.24106e-221
8.47779e-221
1.66581e-220
3.21562e-220
6.0949e-220
1.13371e-219
2.06837e-219
3.69917e-219
6.48136e-219
1.1118e-218
1.86578e-218
3.06052e-218
4.90227e-218
7.65856e-218
1.16525e-217
1.72366e-217
2.4735e-217
3.43428e-217
4.59794e-217
5.91031e-217
7.25248e-217
8.42864e-217
9.17074e-217
1.07779e-208
9.90385e-209
8.52299e-209
6.94835e-209
5.40909e-209
4.04429e-209
2.91713e-209
2.03691e-209
1.3807e-209
9.10589e-210
5.85393e-210
3.67404e-210
2.25409e-210
1.3533e-210
7.95803e-211
4.58714e-211
2.59354e-211
1.43918e-211
7.84217e-212
4.19829e-212
2.20916e-212
1.14315e-212
5.81962e-213
2.91616e-213
1.439e-213
6.99618e-214
3.35304e-214
1.585e-214
7.39406e-215
3.40606e-215
1.55028e-215
6.97642e-216
3.10607e-216
1.36914e-216
5.97937e-217
2.58915e-217
1.11247e-217
4.7468e-218
2.01304e-218
8.49211e-219
3.56681e-219
1.49296e-219
6.23357e-220
2.59886e-220
1.08304e-220
4.51695e-221
1.88861e-221
7.95229e-222
3.43478e-222
1.65034e-222
1.13454e-222
1.41924e-222
2.60129e-222
5.31338e-222
1.10008e-221
2.25807e-221
4.57219e-221
9.11915e-221
1.79032e-220
3.45801e-220
6.56809e-220
1.22621e-219
2.24907e-219
4.05076e-219
7.16035e-219
1.24149e-218
2.10994e-218
3.51224e-218
5.72127e-218
9.11022e-218
1.41624e-217
2.14611e-217
3.16419e-217
4.5289e-217
6.27529e-217
8.38846e-217
1.07701e-216
1.32048e-216
1.53376e-216
1.6683e-216
1.96014e-208
1.80147e-208
1.55075e-208
1.2648e-208
9.85219e-209
7.37247e-209
5.32363e-209
3.72266e-209
2.52807e-209
1.67124e-209
1.07758e-209
6.78786e-210
4.18298e-210
2.52472e-210
1.49397e-210
8.67429e-211
4.94538e-211
2.77017e-211
1.52541e-211
8.26134e-212
4.40241e-212
2.30934e-212
1.19295e-212
6.07107e-213
3.04509e-213
1.50596e-213
7.34674e-214
3.53714e-214
1.6815e-214
7.89693e-215
3.66582e-215
1.68301e-215
7.64657e-216
3.44021e-216
1.53366e-216
6.77952e-217
2.97375e-217
1.2953e-217
5.60705e-218
2.41405e-218
1.0346e-218
4.4176e-219
1.88098e-219
7.99427e-220
3.39468e-220
1.44188e-220
6.13523e-221
2.62444e-221
1.14368e-221
5.37634e-222
3.31518e-222
3.54328e-222
5.94736e-222
1.16992e-221
2.36877e-221
4.77489e-221
9.50934e-221
1.86731e-220
3.61272e-220
6.88321e-220
1.29093e-219
2.38224e-219
4.32362e-219
7.71397e-219
1.35221e-218
2.32744e-218
3.93073e-218
6.50831e-218
1.05545e-217
1.67446e-217
2.59529e-217
3.9234e-217
5.77375e-217
8.25188e-217
1.14211e-216
1.52542e-216
1.95731e-216
2.3987e-216
2.78532e-216
3.02918e-216
3.56148e-208
3.27346e-208
2.81831e-208
2.29918e-208
1.79154e-208
1.34123e-208
9.69086e-209
6.78199e-209
4.61056e-209
3.0521e-209
1.97139e-209
1.24457e-209
7.69083e-210
4.65775e-210
2.76752e-210
1.61478e-210
9.25943e-211
5.22148e-211
2.89729e-211
1.58271e-211
8.51566e-212
4.51459e-212
2.35923e-212
1.21572e-212
6.17971e-213
3.09981e-213
1.53498e-213
7.50663e-214
3.627e-214
1.73222e-214
8.18134e-215
3.82321e-215
1.76868e-215
8.10461e-216
3.68077e-216
1.65783e-216
7.41013e-217
3.28922e-217
1.45096e-217
6.36562e-218
2.77964e-218
1.20908e-218
5.24339e-219
2.26905e-219
9.80748e-220
4.23841e-220
1.83389e-220
7.96709e-221
3.50951e-221
1.63322e-221
9.31702e-222
8.60126e-222
1.30633e-221
2.46322e-221
4.88071e-221
9.68434e-221
1.90231e-220
3.6887e-220
7.05418e-220
1.32979e-219
2.47003e-219
4.51878e-219
8.13855e-219
1.44231e-218
2.51364e-218
4.30519e-218
7.24081e-218
1.1948e-217
1.93219e-217
3.05854e-217
4.73213e-217
7.14384e-217
1.05018e-216
1.4997e-216
2.0744e-216
2.76935e-216
3.55224e-216
4.35228e-216
5.05299e-216
5.49494e-216
6.46783e-208
5.94504e-208
5.11888e-208
4.17651e-208
3.25496e-208
2.43742e-208
1.76171e-208
1.23346e-208
8.39038e-209
5.55864e-209
3.59409e-209
2.27201e-209
1.40637e-209
8.53541e-210
5.08492e-210
2.97651e-210
1.71343e-210
9.70687e-211
5.41535e-211
2.9768e-211
1.61309e-211
8.62066e-212
4.54534e-212
2.36534e-212
1.21526e-212
6.16662e-213
3.0915e-213
1.53177e-213
7.50373e-214
3.63572e-214
1.74307e-214
8.27259e-215
3.88846e-215
1.81109e-215
8.36302e-216
3.83083e-216
1.74177e-216
7.86553e-217
3.53019e-217
1.5758e-217
7.00097e-218
3.09812e-218
1.36669e-218
6.01501e-219
2.64352e-219
1.16125e-219
5.10511e-220
2.25133e-220
1.00339e-220
4.65769e-221
2.51981e-221
2.04794e-221
2.79165e-221
5.01703e-221
9.72784e-221
1.90365e-220
3.69739e-220
7.09821e-220
1.34529e-219
2.51564e-219
4.63935e-219
8.43427e-219
1.51081e-218
2.66502e-218
4.62641e-218
7.89808e-218
1.32483e-217
2.1814e-217
3.52169e-217
5.56717e-217
8.6045e-217
1.29794e-216
1.90689e-216
2.72188e-216
3.76368e-216
5.0233e-216
6.44222e-216
7.89215e-216
9.16201e-216
9.96292e-216
1.17427e-207
1.07938e-207
9.29431e-208
7.58381e-208
5.91104e-208
4.42699e-208
3.20033e-208
2.24127e-208
1.5251e-208
1.01084e-208
6.53973e-209
4.13735e-209
2.5636e-209
1.55791e-209
9.29654e-210
5.45309e-210
3.14709e-210
1.78843e-210
1.00147e-210
5.52931e-211
3.01168e-211
1.61904e-211
8.59407e-212
4.50607e-212
2.33457e-212
1.19555e-212
6.05372e-213
3.03187e-213
1.50237e-213
7.36829e-214
3.57801e-214
1.72095e-214
8.20217e-215
3.87538e-215
1.81607e-215
8.44509e-216
3.8991e-216
1.78839e-216
8.15384e-217
3.6978e-217
1.66917e-217
7.50488e-218
3.36353e-218
1.50383e-218
6.71297e-219
2.99457e-219
1.33644e-219
5.97889e-220
2.69705e-220
1.25476e-220
6.55779e-221
4.80047e-221
5.85959e-221
9.97708e-221
1.89165e-220
3.65627e-220
7.0365e-220
1.3404e-219
2.52318e-219
4.69022e-219
8.60509e-219
1.55747e-218
2.7794e-218
4.88744e-218
8.46265e-218
1.4417e-217
2.4143e-217
3.97002e-217
6.40268e-217
1.01135e-216
1.56218e-216
2.3554e-216
3.45929e-216
4.93653e-216
6.8247e-216
9.10755e-216
1.1679e-215
1.43065e-215
1.66077e-215
1.8059e-215
2.13159e-207
1.9594e-207
1.68724e-207
1.37678e-207
1.07317e-207
8.038e-208
5.8114e-208
4.07046e-208
2.77033e-208
1.83665e-208
1.18866e-208
7.52346e-209
4.66455e-209
2.8369e-209
1.6946e-209
9.95298e-210
5.75351e-210
3.27628e-210
1.83921e-210
1.01854e-210
5.56782e-211
3.00591e-211
1.60345e-211
8.45478e-212
4.40841e-212
2.27375e-212
1.16044e-212
5.86224e-213
2.93222e-213
1.45264e-213
7.13002e-214
3.46852e-214
1.67293e-214
8.00317e-215
3.7991e-215
1.79032e-215
8.37956e-216
3.89743e-216
1.80237e-216
8.29219e-217
3.79778e-217
1.73264e-217
7.8797e-218
3.5748e-218
1.61909e-218
7.32721e-219
3.31665e-219
1.5042e-219
6.8674e-220
3.21149e-220
1.64302e-220
1.10816e-220
1.21586e-220
1.95131e-220
3.61315e-220
6.90495e-220
1.31895e-219
2.49761e-219
4.67793e-219
8.65833e-219
1.58276e-218
2.85596e-218
5.08378e-218
8.92118e-218
1.54215e-217
2.62377e-217
4.38927e-217
7.21188e-217
1.16239e-216
1.83524e-216
2.83381e-216
4.27161e-216
6.27235e-216
8.94959e-216
1.23714e-215
1.65083e-215
2.11681e-215
2.59295e-215
3.00994e-215
3.27293e-215
3.86898e-207
3.55648e-207
3.06255e-207
2.49911e-207
1.94807e-207
1.45917e-207
1.05503e-207
7.39038e-208
5.03041e-208
3.33553e-208
2.15915e-208
1.36698e-208
8.47831e-209
5.15883e-209
3.08349e-209
1.81251e-209
1.04884e-209
5.98039e-210
3.36275e-210
1.86606e-210
1.0226e-210
5.53713e-211
2.9641e-211
1.56938e-211
8.2219e-212
4.26368e-212
2.18936e-212
1.11355e-212
5.61169e-213
2.80288e-213
1.38795e-213
6.81616e-214
3.32082e-214
1.60563e-214
7.70728e-215
3.67443e-215
1.7406e-215
8.19659e-216
3.8389e-216
1.78918e-216
8.30277e-217
3.83864e-217
1.76928e-217
8.13534e-218
3.7345e-218
1.71282e-218
7.85639e-219
3.60934e-219
1.66727e-219
7.85067e-220
3.96788e-220
2.51589e-220
2.50338e-220
3.7739e-220
6.81429e-220
1.2884e-219
2.44594e-219
4.61087e-219
8.60456e-219
1.5878e-218
2.89527e-218
5.21357e-218
9.26505e-218
1.6237e-217
2.80386e-217
4.76652e-217
7.96884e-217
1.30871e-216
2.10858e-216
3.32823e-216
5.13813e-216
7.74391e-216
1.13697e-215
1.62214e-215
2.24221e-215
2.99186e-215
3.83624e-215
4.69902e-215
5.45461e-215
5.93114e-215
7.02191e-207
6.45482e-207
5.55845e-207
4.53591e-207
3.53586e-207
2.64856e-207
1.91509e-207
1.34157e-207
9.13231e-208
6.05595e-208
3.9206e-208
2.48257e-208
1.54008e-208
9.37364e-209
5.60485e-209
3.29623e-209
1.90866e-209
1.0892e-209
6.13106e-210
3.4068e-210
1.87002e-210
1.01464e-210
5.44488e-211
2.89134e-211
1.52e-211
7.91409e-212
4.08259e-212
2.08736e-212
1.0581e-212
5.31939e-213
2.65295e-213
1.313e-213
6.45063e-214
3.14689e-214
1.52494e-214
7.34303e-215
3.51493e-215
1.67326e-215
7.92513e-216
3.73646e-216
1.75449e-216
8.20958e-217
3.83025e-217
1.78297e-217
8.28643e-218
3.84784e-218
1.78679e-218
8.30854e-219
3.88137e-219
1.84192e-219
9.25416e-220
5.60812e-220
5.12214e-220
7.24561e-220
1.27396e-219
2.38391e-219
4.50232e-219
8.45847e-219
1.57437e-218
2.89913e-218
5.27748e-218
9.49042e-218
1.68473e-217
2.95002e-217
5.09087e-217
8.65005e-217
1.4456e-216
2.37341e-216
3.8232e-216
6.03366e-216
9.31367e-216
1.40358e-215
2.06063e-215
2.93978e-215
4.06339e-215
5.42176e-215
6.95176e-215
8.51509e-215
9.88419e-215
1.07476e-214
1.27435e-206
1.17144e-206
1.00878e-206
8.23216e-207
6.4173e-207
4.80705e-207
3.47593e-207
2.43507e-207
1.65767e-207
1.09932e-207
7.11751e-208
4.50734e-208
2.79652e-208
1.70239e-208
1.01816e-208
5.98964e-209
3.46965e-209
1.98104e-209
1.11587e-209
6.20584e-210
3.41017e-210
1.85283e-210
9.95962e-211
5.2996e-211
2.7929e-211
1.4584e-211
7.54902e-212
3.8749e-212
1.97306e-212
9.96944e-213
5.00024e-213
2.49019e-213
1.23177e-213
6.05364e-214
2.95686e-214
1.43589e-214
6.93492e-215
3.33242e-215
1.59387e-215
7.59131e-216
3.60208e-216
1.70368e-216
8.03628e-217
3.78277e-217
1.77797e-217
8.35027e-218
3.92182e-218
1.84423e-218
8.7076e-219
4.16612e-219
2.08934e-219
1.22585e-219
1.04145e-219
1.38434e-219
2.36772e-219
4.38563e-219
8.24586e-219
1.54511e-218
2.87059e-218
5.27855e-218
9.59819e-218
1.72451e-217
3.05925e-217
5.35402e-217
9.23575e-217
1.5688e-216
2.62118e-216
4.30276e-216
6.9302e-216
1.0936e-215
1.68798e-215
2.54367e-215
3.73425e-215
5.32728e-215
7.36323e-215
9.82453e-215
1.25968e-214
1.54294e-214
1.79101e-214
1.94745e-214
2.31258e-206
2.12586e-206
1.83069e-206
1.49396e-206
1.16462e-206
8.72406e-207
6.30842e-207
4.41949e-207
3.00866e-207
1.99535e-207
1.29194e-207
8.18207e-208
5.07688e-208
3.0909e-208
1.84885e-208
1.08785e-208
6.30323e-209
3.60009e-209
2.02871e-209
1.12888e-209
6.20771e-210
3.37584e-210
1.81669e-210
9.68032e-211
5.11029e-211
2.67402e-211
1.38755e-211
7.14289e-212
3.64933e-212
1.85106e-212
9.3248e-213
4.66673e-213
2.321e-213
1.14752e-213
5.64165e-214
2.75899e-214
1.34257e-214
6.50319e-215
3.13674e-215
1.5072e-215
7.21765e-216
3.4463e-216
1.64158e-216
7.80474e-217
3.70591e-217
1.75852e-217
8.34537e-218
3.96522e-218
1.89094e-218
9.12141e-219
4.57844e-219
2.62616e-219
2.10244e-219
2.63555e-219
4.38324e-219
8.03712e-219
1.50513e-218
2.81458e-218
5.22222e-218
9.59362e-218
1.74317e-217
3.1302e-217
5.55053e-217
9.71083e-217
1.67471e-216
2.84416e-216
4.75142e-216
7.79881e-216
1.25601e-215
1.98189e-215
3.05892e-215
4.60943e-215
6.76673e-215
9.65319e-215
1.33421e-214
1.78018e-214
2.28247e-214
2.7957e-214
3.24516e-214
3.52861e-214
4.19649e-206
3.85769e-206
3.32209e-206
2.71107e-206
2.11345e-206
1.58319e-206
1.14484e-206
8.02058e-207
5.46032e-207
3.6214e-207
2.34486e-207
1.4851e-207
9.2154e-208
5.6109e-208
3.35652e-208
1.97519e-208
1.14464e-208
6.53897e-209
3.6858e-209
2.0517e-209
1.12875e-209
6.14189e-210
3.30771e-210
1.76419e-210
9.32415e-211
4.886e-211
2.53976e-211
1.31016e-211
6.7102e-212
3.41344e-212
1.72526e-212
8.66706e-213
4.329e-213
2.15051e-213
1.06284e-213
5.2277e-214
2.5598e-214
1.24825e-214
6.06397e-215
2.93584e-215
1.41711e-215
6.82279e-216
3.27798e-216
1.57237e-216
7.53434e-217
3.60853e-217
1.72869e-217
8.29169e-218
3.99076e-218
1.94039e-218
9.76459e-219
5.51503e-219
4.20963e-219
5.00248e-219
8.09281e-219
1.46913e-218
2.74127e-218
5.11779e-218
9.48665e-218
1.74164e-217
3.16307e-217
5.67788e-217
1.00654e-216
1.76061e-216
3.03587e-216
5.15521e-216
8.61146e-216
1.41336e-215
2.27612e-215
3.59141e-215
5.54295e-215
8.35235e-215
1.22612e-214
1.74911e-214
2.41749e-214
3.2255e-214
4.13557e-214
5.06545e-214
5.87976e-214
6.39331e-214
7.61472e-206
7.00002e-206
6.0282e-206
4.91951e-206
3.83513e-206
2.87295e-206
2.07752e-206
1.45551e-206
9.90918e-207
6.57213e-207
4.25558e-207
2.69533e-207
1.67258e-207
1.01842e-207
6.09272e-208
3.58562e-208
2.07811e-208
1.18731e-208
6.69365e-209
3.72685e-209
2.05094e-209
1.11641e-209
6.01536e-210
3.21034e-210
1.69808e-210
8.90696e-211
4.63549e-211
2.3948e-211
1.22871e-211
6.26356e-212
3.17363e-212
1.59888e-212
8.01228e-213
3.99505e-213
1.98271e-213
9.79726e-214
4.82173e-214
2.36427e-214
1.15542e-214
5.62967e-215
2.73587e-215
1.32664e-215
6.42165e-216
3.10438e-216
1.49954e-216
7.24161e-217
3.49857e-217
1.6925e-217
8.21492e-218
4.02443e-218
2.0324e-218
1.13619e-218
8.35244e-219
9.4664e-219
1.49129e-218
2.68089e-218
4.98548e-218
9.29493e-218
1.72176e-217
3.15956e-217
5.73644e-217
1.02949e-216
1.8247e-216
3.19131e-216
5.5023e-216
9.34278e-216
1.56057e-215
2.56118e-215
4.12447e-215
6.50766e-215
1.00436e-214
1.51339e-214
2.2216e-214
3.16917e-214
4.38015e-214
5.84408e-214
7.49292e-214
9.17762e-214
1.06529e-213
1.15833e-213
1.38167e-205
1.27014e-205
1.09382e-205
8.92654e-206
6.959e-206
5.21317e-206
3.76987e-206
2.64122e-206
1.79818e-206
1.19265e-206
7.72281e-207
4.89148e-207
3.03549e-207
1.84835e-207
1.10583e-207
6.50825e-208
3.77222e-208
2.15542e-208
1.21528e-208
6.76737e-209
3.72488e-209
2.02811e-209
1.09312e-209
5.83629e-210
3.08868e-210
1.62118e-210
8.44421e-211
4.36695e-211
2.24338e-211
1.14533e-211
5.81365e-212
2.93515e-212
1.47449e-212
7.37299e-213
3.67099e-213
1.82058e-213
8.99639e-214
4.43103e-214
2.17605e-214
1.06589e-214
5.20947e-215
2.54146e-215
1.23811e-215
6.02576e-216
2.9312e-216
1.42589e-216
6.9406e-217
3.38342e-217
1.65479e-217
8.16367e-218
4.13947e-218
2.29905e-218
1.64133e-218
1.78552e-218
2.7438e-218
4.88645e-218
9.05845e-218
1.68689e-217
3.12307e-217
5.72931e-217
1.03999e-216
1.86613e-216
3.30724e-216
5.78372e-216
9.97139e-216
1.69304e-215
2.82785e-215
4.64088e-215
7.47339e-215
1.17914e-214
1.8198e-214
2.74206e-214
4.02519e-214
5.74196e-214
7.93595e-214
1.05882e-213
1.35754e-213
1.66276e-213
1.93004e-213
2.0986e-213
2.50688e-205
2.30455e-205
1.98464e-205
1.61967e-205
1.26268e-205
9.45923e-206
6.8405e-206
4.79261e-206
3.26295e-206
2.16419e-206
1.40142e-206
8.87655e-207
5.50864e-207
3.35438e-207
2.00692e-207
1.1812e-207
6.84665e-208
3.91236e-208
2.20606e-208
1.22857e-208
6.76314e-209
3.68296e-209
1.98547e-209
1.06035e-209
5.61354e-210
2.94774e-210
1.53625e-210
7.95035e-211
4.0878e-211
2.08921e-211
1.06184e-211
5.36924e-212
2.70221e-212
1.35408e-212
6.75859e-213
3.36128e-213
1.66627e-213
8.23619e-214
4.06069e-214
1.99765e-214
9.8094e-215
4.80985e-215
2.35591e-215
1.1532e-215
5.64375e-216
2.76285e-216
1.3537e-216
6.64381e-217
3.27162e-217
1.62437e-217
8.27128e-218
4.57589e-218
3.19396e-218
3.35579e-218
5.04123e-218
8.89902e-218
1.64487e-217
3.06001e-217
5.66282e-217
1.03862e-216
1.88505e-216
3.38216e-216
5.99356e-216
1.0481e-215
1.80689e-215
3.06781e-215
5.12397e-215
8.40892e-215
1.35409e-214
2.13643e-214
3.29717e-214
4.96807e-214
7.29277e-214
1.04031e-213
1.43779e-213
1.91829e-213
2.45948e-213
3.01242e-213
3.49664e-213
3.80199e-213
4.54825e-205
4.1812e-205
3.60082e-205
2.93866e-205
2.29099e-205
1.71629e-205
1.24116e-205
8.69602e-206
5.92061e-206
3.927e-206
2.54297e-206
1.61074e-206
9.99623e-207
6.08717e-207
3.64204e-207
2.14364e-207
1.24258e-207
7.10072e-208
4.0041e-208
2.23006e-208
1.22772e-208
6.68646e-209
3.60516e-209
1.9257e-209
1.0197e-209
5.35619e-210
2.79248e-210
1.44585e-210
7.43852e-211
3.80453e-211
1.93542e-211
9.79738e-212
4.93733e-212
2.47801e-212
1.23912e-212
6.17578e-213
3.06899e-213
1.5212e-213
7.5234e-214
3.71398e-214
1.83071e-214
9.014e-215
4.43507e-215
2.18145e-215
1.0731e-215
5.28184e-216
2.60268e-216
1.28493e-216
6.36557e-217
3.17879e-217
1.62535e-217
8.97293e-218
6.15618e-218
6.28313e-218
9.24988e-218
1.61959e-217
2.98554e-217
5.54909e-217
1.02655e-216
1.88249e-216
3.4163e-216
6.12912e-216
1.08609e-215
1.89919e-215
3.27405e-215
5.55865e-215
9.28406e-215
1.52357e-214
2.45338e-214
3.87078e-214
5.97371e-214
9.00089e-214
1.32125e-213
1.88473e-213
2.60483e-213
3.47532e-213
4.45573e-213
5.45744e-213
6.33464e-213
6.88781e-213
8.25158e-205
7.58572e-205
6.53283e-205
5.33156e-205
4.15656e-205
3.11392e-205
2.25191e-205
1.57779e-205
1.07424e-205
7.12533e-206
4.61418e-206
2.92272e-206
1.81387e-206
1.10458e-206
6.60901e-207
3.89006e-207
2.25496e-207
1.28865e-207
7.26699e-208
4.04751e-208
2.22842e-208
1.21374e-208
6.54476e-209
3.4963e-209
1.85167e-209
9.72814e-210
5.07311e-210
2.62753e-210
1.35235e-210
6.9203e-211
3.5227e-211
1.78463e-211
9.0021e-212
4.52325e-212
2.26491e-212
1.13064e-212
5.62902e-213
2.79608e-213
1.38622e-213
6.86194e-214
3.39275e-214
1.67615e-214
8.27742e-215
4.08767e-215
2.01947e-215
9.98564e-216
4.94447e-216
2.45351e-216
1.22186e-216
6.13283e-217
3.14808e-217
1.7364e-217
1.17588e-217
1.17183e-217
1.69493e-217
2.94595e-217
5.41727e-217
1.00607e-216
1.86064e-216
3.41159e-216
6.19082e-216
1.11063e-215
1.96799e-215
3.44121e-215
5.93221e-215
1.00714e-214
1.68211e-214
2.7604e-214
4.44495e-214
7.01284e-214
1.08227e-213
1.63068e-213
2.39367e-213
3.41448e-213
4.719e-213
6.29596e-213
8.07204e-213
9.88668e-213
1.14758e-212
1.24778e-212
1.49697e-204
1.37618e-204
1.18518e-204
9.67254e-205
7.54095e-205
5.64943e-205
4.0856e-205
2.8626e-205
1.94904e-205
1.2928e-205
8.37197e-206
5.3031e-206
3.29123e-206
2.00427e-206
1.19924e-206
7.0589e-207
4.09197e-207
2.33851e-207
1.31878e-207
7.34554e-208
4.04439e-208
2.20294e-208
1.18796e-208
6.34677e-209
3.36164e-209
1.76635e-209
9.21288e-210
4.77269e-210
2.45711e-210
1.2578e-210
6.40551e-211
3.24686e-211
1.63889e-211
8.24161e-212
4.13086e-212
2.06452e-212
1.02927e-212
5.12092e-213
2.54354e-213
1.26175e-213
6.25345e-214
3.09773e-214
1.53432e-214
7.60171e-215
3.76887e-215
1.87072e-215
9.30095e-216
4.63524e-216
2.31877e-216
1.16905e-216
6.0225e-217
3.32156e-217
2.22739e-217
2.17709e-217
3.10157e-217
5.35586e-217
9.82726e-217
1.82378e-216
3.37206e-216
6.18223e-216
1.12179e-215
2.01241e-215
3.56581e-215
6.235e-215
1.07481e-214
1.82474e-214
3.04758e-214
5.00111e-214
8.05295e-214
1.27051e-213
1.9607e-213
2.95421e-213
4.33642e-213
6.18567e-213
8.54887e-213
1.14056e-212
1.46229e-212
1.79102e-212
2.07887e-212
2.2604e-212
2.71562e-204
2.49652e-204
2.15004e-204
1.75472e-204
1.36804e-204
1.02491e-204
7.41209e-205
5.19341e-205
3.53606e-205
2.34551e-205
1.51895e-205
9.62172e-206
5.97158e-206
3.63661e-206
2.17599e-206
1.28085e-206
7.4251e-207
4.24347e-207
2.39314e-207
1.333e-207
7.33966e-208
3.99802e-208
2.15607e-208
1.15197e-208
6.102e-209
3.20655e-209
1.67266e-209
8.66641e-210
4.46254e-210
2.28494e-210
1.16398e-210
5.90229e-211
2.98065e-211
1.49977e-211
7.52242e-212
3.76276e-212
1.87784e-212
9.35394e-213
4.65258e-213
2.3117e-213
1.14784e-213
5.69792e-214
2.82885e-214
1.4052e-214
6.98692e-215
3.47892e-215
1.73554e-215
8.68063e-216
4.35903e-216
2.20611e-216
1.14016e-216
6.29074e-217
4.18768e-217
4.02982e-217
5.66815e-217
9.73266e-217
1.78237e-216
3.30572e-216
6.11075e-216
1.12023e-215
2.03261e-215
3.64624e-215
6.46065e-215
1.12965e-214
1.94731e-214
3.30594e-214
5.52131e-214
9.0604e-214
1.45892e-213
2.30169e-213
3.55202e-213
5.35182e-213
7.85573e-213
1.12057e-212
1.54866e-212
2.06614e-212
2.64896e-212
3.24442e-212
3.76585e-212
4.09466e-212
4.92614e-204
4.52873e-204
3.90025e-204
3.18317e-204
2.48173e-204
1.85928e-204
1.34465e-204
9.42164e-205
6.41507e-205
4.25526e-205
2.75574e-205
1.74565e-205
1.08343e-205
6.59809e-206
3.94809e-206
2.324e-206
1.34726e-206
7.69983e-207
4.34249e-207
2.41888e-207
1.3319e-207
7.25532e-208
3.91284e-208
2.09069e-208
1.1075e-208
5.82021e-209
3.0363e-209
1.57333e-209
8.10251e-210
4.14938e-210
2.1142e-210
1.07234e-210
5.41707e-211
2.7268e-211
1.36837e-211
6.84883e-212
3.42048e-212
1.70532e-212
8.49093e-213
4.22397e-213
2.1003e-213
1.04428e-213
5.19408e-214
2.58543e-214
1.28848e-214
6.43182e-215
3.21753e-215
1.61413e-215
8.13121e-216
4.12857e-216
2.13972e-216
1.18135e-216
7.82145e-217
7.43378e-217
1.03455e-216
1.76785e-216
3.23211e-216
5.99128e-216
1.10731e-215
2.02977e-215
3.68279e-215
6.60629e-215
1.17052e-214
2.04664e-214
3.52795e-214
5.98931e-214
1.00027e-213
1.64141e-213
2.64298e-213
4.16969e-213
6.4347e-213
9.69503e-213
1.42308e-212
2.02991e-212
2.80537e-212
3.74275e-212
4.79847e-212
5.87708e-212
6.8216e-212
7.41719e-212
8.93567e-204
8.21487e-204
7.07491e-204
5.7742e-204
4.50186e-204
3.37278e-204
2.43926e-204
1.70916e-204
1.16376e-204
7.71962e-205
4.99938e-205
3.16696e-205
1.9656e-205
1.19707e-205
7.16306e-206
4.21655e-206
2.44446e-206
1.39708e-206
7.87934e-207
4.38911e-207
2.41683e-207
1.31657e-207
7.10056e-208
3.79408e-208
2.00992e-208
1.05632e-208
5.51096e-209
2.85585e-209
1.47087e-209
7.53335e-210
3.83895e-210
1.9475e-210
9.84029e-211
4.95472e-211
2.48726e-211
1.24544e-211
6.2233e-212
3.10466e-212
1.54702e-212
7.70286e-213
3.83417e-213
1.90871e-213
9.50696e-214
4.73981e-214
2.3664e-214
1.18364e-214
5.93436e-215
2.98431e-215
1.50728e-215
7.67379e-216
3.98669e-216
2.20277e-216
1.45255e-216
1.36708e-216
1.88606e-216
3.20986e-216
5.86015e-216
1.08577e-215
2.0064e-215
3.67763e-215
6.67243e-215
1.19689e-214
2.12065e-214
3.70786e-214
6.39143e-214
1.08504e-213
1.81209e-213
2.97353e-213
4.78789e-213
7.55352e-213
1.16565e-212
1.75624e-212
2.57787e-212
3.67708e-212
5.08174e-212
6.77969e-212
8.69198e-212
1.06457e-211
1.23566e-211
1.34354e-211
1.6208e-203
1.49007e-203
1.28331e-203
1.04738e-203
8.16604e-204
6.11805e-204
4.42475e-204
3.10042e-204
2.1111e-204
1.40039e-204
9.06934e-205
5.74527e-205
3.56592e-205
2.17173e-205
1.29955e-205
7.64996e-206
4.435e-206
2.53479e-206
1.42962e-206
7.96376e-207
4.38529e-207
2.38895e-207
1.28846e-207
6.88488e-208
3.64741e-208
1.91698e-208
1.00016e-208
5.18326e-209
2.66975e-209
1.36748e-209
6.96929e-210
3.53597e-210
1.78693e-210
8.9992e-211
4.5187e-211
2.26332e-211
1.13137e-211
5.64674e-212
2.81525e-212
1.40269e-212
6.98747e-213
3.48166e-213
1.736e-213
8.66568e-214
4.33248e-214
2.17046e-214
1.09011e-214
5.49268e-215
2.78006e-215
1.4185e-215
7.38429e-216
4.08324e-216
2.68459e-216
2.50727e-216
3.43477e-216
5.82594e-216
1.06236e-215
1.96757e-215
3.63537e-215
6.66307e-215
1.20886e-214
2.1684e-214
3.84189e-214
6.71726e-214
1.15787e-213
1.96563e-213
3.28269e-213
5.38663e-213
8.67327e-213
1.36831e-212
2.11153e-212
3.18132e-212
4.6696e-212
6.66066e-212
9.20499e-212
1.22805e-211
1.57443e-211
1.92831e-211
2.23819e-211
2.43359e-211
2.93979e-203
2.70269e-203
2.32768e-203
1.89978e-203
1.4812e-203
1.10974e-203
8.02606e-204
5.62394e-204
3.82944e-204
2.54028e-204
1.6452e-204
1.04222e-204
6.46888e-205
3.93977e-205
2.35758e-205
1.38785e-205
8.04612e-206
4.5988e-206
2.59378e-206
1.44491e-206
7.95666e-207
4.33461e-207
2.33789e-207
1.24929e-207
6.61859e-208
3.47867e-208
1.81502e-208
9.40661e-209
4.84533e-209
2.48198e-209
1.26502e-209
6.41888e-210
3.24419e-210
1.63404e-210
8.20631e-211