/*--------------------------------*- C++ -*----------------------------------*\
  =========                 |
  \\      /  F ield         | OpenFOAM: The Open Source CFD Toolbox
   \\    /   O peration     | Website:  https://openfoam.org
    \\  /    A nd           | Version:  11
     \\/     M anipulation  |
\*---------------------------------------------------------------------------*/
FoamFile
{
    format      ascii;
    class       volScalarField;
    location    "20";
    object      C;
}
// * * * * * * * * * * * * * * * * * * * * * * * * * * * * * * * * * * * * * //

dimensions      [0 0 0 1 0 0 0];

internalField   nonuniform List<scalar> 
427520
(
-5.51362e-313
-1.2747e-312
-9.17299e-313
-9.46477e-313
-7.78925e-313
-7.01306e-313
-1.433e-312
-1.52877e-313
2.57156e-313
3.82568e-313
7.82733e-314
-6.38622e-316
6.73348e-313
5.86942e-314
-1.24108e-313
4.88879e-314
5.10116e-314
-8.12225e-314
-9.42563e-314
1.12504e-313
-8.08498e-315
-3.50741e-314
9.10273e-314
-9.83804e-314
-9.18688e-314
3.9469e-314
1.43983e-313
1.74702e-313
7.92882e-314
-2.5122e-314
3.86539e-314
-1.00514e-313
1.97796e-314
-2.54382e-314
-9.28514e-314
6.59008e-314
-3.49189e-315
3.27948e-314
1.931e-314
7.77177e-315
2.01994e-314
-7.88547e-314
-3.47291e-314
2.10402e-314
-1.30261e-314
6.29819e-314
4.03888e-314
7.35344e-314
1.00455e-314
7.35981e-314
-8.52561e-314
3.46664e-314
-5.23415e-314
-2.66992e-314
3.95057e-314
-7.42766e-314
-6.30782e-314
-6.00403e-314
-5.47253e-314
2.07814e-313
2.09544e-313
2.83927e-314
-2.62056e-314
1.75194e-314
-8.36757e-314
8.82152e-314
6.46103e-314
1.11183e-313
4.53408e-314
7.02659e-313
1.42537e-313
-3.62667e-314
-1.75587e-313
-3.67966e-313
-1.48104e-313
-1.20738e-313
4.64258e-314
5.15839e-313
1.76548e-313
-4.38571e-313
-1.27589e-312
-3.05087e-312
-2.31619e-312
-1.50444e-312
-7.70612e-313
4.20827e-313
-3.13095e-313
-9.32002e-313
-6.4018e-313
1.76884e-313
3.65289e-314
9.52502e-314
7.76138e-313
1.684e-313
1.29019e-313
-6.13505e-314
-8.57682e-314
-3.55268e-316
4.46671e-314
-1.01822e-313
6.82007e-314
-2.07113e-314
-1.85372e-313
1.37644e-314
6.20129e-314
4.87975e-314
-2.11576e-313
-2.7635e-313
-1.44531e-314
8.9592e-314
-9.80044e-314
3.29865e-314
9.09899e-315
5.7087e-314
7.98439e-314
5.58068e-314
8.78993e-314
-5.49769e-314
3.18957e-314
1.79342e-313
1.42086e-313
-3.30282e-314
8.49267e-314
4.42106e-314
7.95527e-314
7.13143e-314
9.44285e-314
-2.50016e-314
7.52355e-314
5.589e-314
-1.01983e-313
-6.19257e-314
1.65956e-314
4.78489e-314
1.07871e-313
7.97514e-314
3.61483e-314
-9.18294e-314
2.94539e-314
-1.54288e-313
-2.75844e-315
1.7508e-313
-1.92824e-314
-1.06083e-314
1.46681e-314
4.60461e-313
7.32247e-313
5.47255e-313
4.36722e-313
1.42387e-312
8.87542e-314
4.49759e-313
7.1919e-314
-1.49073e-314
-4.57437e-313
-6.76314e-313
-1.17874e-312
6.74677e-314
-7.95133e-313
6.4873e-314
-1.1428e-312
-1.19673e-312
-4.12846e-313
2.47153e-313
2.53289e-313
1.36652e-312
1.83384e-312
9.77089e-313
-5.2934e-313
-1.70868e-313
-2.8816e-314
-1.0098e-312
-3.96344e-313
1.64695e-313
8.87489e-313
1.12545e-312
9.53367e-313
2.62629e-313
3.70377e-313
2.92846e-313
6.96882e-314
5.17403e-314
-1.6859e-313
-4.48727e-314
-4.5973e-314
-9.48916e-315
-8.11408e-314
-2.42708e-313
-6.54498e-314
-5.57806e-314
-1.00658e-313
-1.45833e-313
-9.86035e-315
6.2662e-314
1.01961e-314
-1.80245e-313
-4.85217e-314
-5.45215e-314
4.06275e-314
1.43008e-313
-9.2855e-314
2.5434e-315
4.00792e-314
1.00938e-313
5.82233e-314
-7.29624e-314
-4.95707e-314
4.94823e-314
2.01624e-314
-2.18825e-314
3.34552e-314
-1.06286e-313
1.28913e-314
1.08341e-313
8.26578e-314
-6.87062e-314
1.19535e-313
3.03956e-314
3.12537e-314
-1.47047e-313
-5.77153e-313
-2.70019e-313
6.66309e-314
4.86765e-313
3.2843e-313
2.22342e-313
1.3376e-312
7.48535e-313
6.22134e-313
7.46871e-313
-2.7777e-313
-1.192e-313
-3.53703e-313
-6.08254e-313
9.70587e-313
3.54944e-314
-2.96115e-313
9.06777e-313
2.58704e-313
1.39822e-312
-1.52734e-312
-2.0012e-312
-1.03723e-312
-2.70941e-313
7.7674e-313
8.06802e-313
1.7041e-312
3.95697e-313
6.06403e-313
-7.95114e-313
-8.6461e-313
-1.6394e-312
-2.25665e-313
-1.81338e-313
1.698e-313
9.11074e-313
4.96442e-313
-4.36543e-314
1.87861e-313
4.17809e-313
2.88235e-313
5.10041e-314
-4.14997e-313
-3.11594e-313
-5.62659e-313
-1.52626e-313
9.27286e-314
3.03427e-313
3.51397e-314
2.91401e-314
2.35164e-314
-3.37271e-314
8.38296e-314
-5.58781e-314
-3.85617e-314
-1.06597e-313
-4.13455e-314
1.53123e-313
-4.79138e-314
2.13865e-313
-1.5761e-314
1.31632e-313
2.48184e-314
6.12642e-315
8.23467e-314
2.12636e-314
-9.71016e-314
1.89968e-314
6.09388e-314
-6.54253e-314
-6.97881e-314
1.08674e-313
9.84979e-314
3.5535e-314
-7.48139e-314
-4.90335e-314
4.69307e-314
1.67343e-313
-8.72262e-314
-3.2804e-313
-7.68351e-313
-3.05944e-313
2.07654e-313
6.39336e-313
4.90686e-313
3.20714e-313
1.13402e-312
9.87233e-313
3.47346e-313
6.88303e-313
-2.74495e-313
-7.04514e-313
-1.72592e-313
-1.26383e-312
-3.25344e-313
-9.07498e-313
1.5952e-314
1.91664e-312
2.00464e-312
6.00568e-313
-5.36721e-314
-1.54491e-312
-8.93848e-313
4.45955e-313
1.26509e-312
7.86898e-313
9.80788e-313
4.53466e-313
9.43572e-314
-8.42801e-313
-1.62279e-313
-5.60192e-313
3.65004e-313
4.41746e-313
3.87666e-313
9.12433e-313
7.67801e-313
2.56628e-313
4.54225e-313
1.37109e-312
8.8577e-313
4.51161e-313
-1.37815e-313
-4.46173e-313
-3.01707e-313
-3.20186e-313
2.01687e-313
3.83512e-313
2.52919e-313
1.29759e-313
-3.29842e-314
9.35982e-314
3.09295e-314
-5.70281e-314
1.60581e-313
-3.04555e-313
-2.01327e-313
9.19812e-315
7.52071e-314
2.51078e-313
1.09034e-313
1.04103e-313
3.85131e-314
1.59115e-313
1.6734e-313
8.12507e-315
-1.13296e-314
3.33236e-314
-4.46169e-314
2.64948e-314
-5.20552e-314
7.33411e-314
-1.01889e-313
-2.07755e-313
-2.42586e-313
2.98239e-314
-4.28735e-314
-5.97178e-314
-1.08821e-313
-4.45022e-313
-1.29285e-312
-7.26983e-313
-6.65783e-313
-1.3811e-314
4.21602e-313
2.58629e-313
6.0695e-313
9.29963e-313
7.45718e-314
8.88177e-314
-4.91179e-313
-7.4257e-313
-1.19622e-312
-1.78616e-312
-4.46119e-313
1.15275e-313
1.28864e-312
1.46082e-312
9.84164e-313
-1.22848e-312
1.6429e-312
-2.86429e-314
-5.29616e-313
7.77199e-313
9.3177e-313
9.12755e-314
-2.63465e-313
-1.46286e-312
-4.88003e-313
-5.53118e-314
3.25808e-313
-2.04464e-314
4.06187e-313
6.61653e-313
4.69138e-314
9.89448e-313
1.1816e-312
3.33064e-313
5.23573e-313
7.96226e-313
1.4024e-312
5.80303e-313
-1.55787e-313
-7.83494e-313
-3.27527e-313
-3.93923e-313
-4.57128e-314
2.48578e-313
3.02358e-313
2.19422e-313
6.91473e-314
2.43788e-313
3.63403e-314
6.3232e-314
3.90023e-313
-1.87606e-313
-3.37679e-314
-1.80456e-313
-4.16283e-314
2.01853e-313
4.18763e-314
2.37698e-314
-3.9415e-314
2.31546e-313
3.24331e-313
2.34093e-313
2.77521e-313
1.92131e-313
3.29961e-314
-7.49605e-314
-1.75281e-313
1.60916e-313
-3.84189e-314
4.76426e-314
-2.19351e-313
-9.68374e-314
1.20053e-314
6.08496e-314
1.08999e-313
-1.23846e-313
-1.08902e-312
-1.1025e-312
-7.43166e-313
-4.84004e-313
4.06411e-313
4.01097e-313
9.81891e-313
7.76422e-313
-5.39557e-313
-1.50943e-313
-7.10429e-313
-1.29566e-312
-1.38216e-312
-2.65912e-312
-2.94006e-312
-2.13935e-312
-1.23684e-312
-8.68886e-313
-7.15401e-313
-9.60338e-313
3.68519e-312
3.54678e-312
2.30354e-312
2.07988e-312
1.40026e-312
1.32143e-312
4.07266e-313
-1.27977e-312
2.29805e-313
3.75379e-313
4.90265e-313
-4.3175e-313
-2.32545e-313
3.83134e-313
1.76726e-313
7.2389e-313
5.72626e-313
6.30141e-313
-1.38789e-313
3.62205e-313
1.23416e-312
4.87612e-313
4.7351e-313
-6.07711e-313
-7.04619e-313
-6.9035e-313
-3.38976e-315
2.79017e-313
4.24213e-313
4.26565e-313
6.67341e-313
5.55015e-313
2.85759e-314
3.87128e-314
2.50804e-313
-1.37207e-313
-5.01201e-314
-1.19555e-313
-1.15355e-313
1.22678e-314
-2.43773e-314
-5.16619e-315
2.16625e-313
9.12521e-313
5.51168e-313
4.645e-313
9.51897e-313
8.10839e-314
6.50024e-314
-1.95201e-313
-4.36101e-313
6.51764e-314
-8.23862e-314
-2.67599e-314
-3.66575e-313
-5.36975e-313
-5.71125e-313
-2.31007e-313
-3.08436e-314
-2.48428e-313
-1.0705e-312
-1.28851e-312
-1.68371e-312
-6.25324e-313
-7.01561e-314
3.34701e-313
8.23543e-313
1.06507e-312
-2.56986e-313
-2.76639e-313
-8.63287e-313
-1.16348e-312
-1.38222e-312
-2.01142e-312
-3.35402e-312
-4.17456e-312
-6.53608e-312
-7.15158e-312
-6.08751e-312
-3.29999e-312
1.74087e-312
2.01133e-312
1.34054e-312
2.37563e-313
7.28191e-313
1.63996e-312
2.22147e-312
-4.64768e-313
6.31931e-313
6.2932e-313
6.80484e-313
2.5756e-313
5.62285e-313
6.7212e-313
2.40439e-313
1.89406e-313
9.5743e-314
4.70544e-314
1.1275e-315
3.50408e-313
5.23328e-313
7.24782e-313
9.85624e-313
1.03645e-315
-8.02593e-313
-1.14327e-312
-1.36189e-313
2.89835e-313
6.82123e-313
7.96277e-313
5.06342e-313
8.83791e-313
1.85808e-313
1.19771e-313
2.4812e-313
-5.63791e-314
9.44516e-315
-1.03697e-313
-1.40374e-313
2.36662e-314
-2.00208e-313
1.37938e-313
1.80979e-313
9.94626e-313
4.7567e-313
6.89579e-313
9.27535e-313
4.43862e-313
2.9806e-313
3.66718e-314
1.35169e-314
1.5738e-313
1.1581e-313
8.68275e-314
-3.49893e-313
-4.44195e-313
-1.04063e-312
-8.23829e-313
-3.04094e-313
-2.15396e-313
-8.11668e-313
-8.23506e-313
-1.43999e-312
-4.18835e-313
-1.0436e-312
-9.02737e-313
7.77962e-314
8.77459e-313
2.86019e-313
1.31049e-313
-6.53518e-313
-1.01889e-312
-2.65465e-313
7.60507e-313
-1.65926e-312
-1.3577e-312
-4.85845e-312
-7.35279e-312
-6.56728e-312
-5.40556e-312
-3.67058e-312
-1.06024e-312
2.47292e-313
1.09439e-312
2.66825e-313
1.61925e-312
1.86004e-312
1.45299e-312
1.03703e-312
7.06367e-313
9.72062e-313
7.69408e-313
9.14754e-313
5.53532e-313
2.05633e-313
1.94278e-313
2.30217e-313
-5.1979e-313
-3.08798e-313
-3.4414e-313
2.08664e-313
1.14739e-312
9.46466e-313
3.17164e-313
-4.46085e-313
-1.01564e-312
-1.43892e-313
2.17433e-313
7.12132e-313
4.2506e-313
5.43582e-313
1.23957e-312
7.10986e-313
1.23011e-313
2.48045e-313
-1.24244e-313
1.53852e-313
3.92888e-315
-2.06053e-314
1.88778e-314
-8.52808e-314
4.39521e-314
3.70743e-313
1.24002e-312
7.22733e-313
4.8284e-313
8.3972e-313
7.57527e-313
6.00789e-313
3.37636e-314
-2.73982e-313
1.74831e-313
9.67348e-314
-1.69185e-313
-4.26323e-313
-2.18324e-313
-9.77452e-313
-6.31832e-313
-9.4123e-313
-3.7022e-313
-1.15184e-312
-6.13834e-313
-1.50635e-312
-2.87305e-313
-1.13788e-312
-1.5228e-312
-8.70041e-313
-1.81305e-313
3.08938e-313
-7.43627e-314
-8.81297e-313
-1.10574e-312
-1.02838e-312
4.66051e-313
6.36127e-314
2.18166e-312
-6.35541e-313
-3.47183e-312
-4.91343e-312
-5.76028e-312
-2.96974e-312
-2.61907e-312
-1.18497e-312
7.57893e-313
7.02483e-313
1.14093e-312
9.09944e-313
-4.80609e-314
-6.44877e-314
6.55893e-313
1.81225e-312
1.16234e-312
9.86953e-313
5.63534e-313
8.66601e-314
-2.5795e-313
-1.17705e-313
-5.50659e-313
6.00412e-314
-2.54405e-313
2.20989e-313
7.45113e-313
8.17116e-313
2.13535e-313
-5.83112e-313
-8.25457e-313
-1.42093e-313
6.93701e-314
1.15206e-312
4.60352e-313
5.46709e-313
9.13922e-313
1.16676e-312
8.45447e-313
4.35415e-313
-1.88887e-314
9.04167e-314
7.04578e-314
6.67402e-314
1.0522e-313
-1.93293e-313
-1.34087e-313
9.89445e-314
9.22815e-313
7.54026e-313
8.20776e-313
1.40746e-312
1.08318e-312
9.84544e-313
2.84109e-313
1.01691e-313
2.18043e-313
2.31914e-313
-1.06239e-313
-4.58567e-313
-4.04283e-313
-9.26682e-313
-6.75921e-313
-1.23604e-312
-7.0758e-313
-1.08994e-312
-3.53869e-313
-1.49841e-312
-5.05181e-313
-6.33123e-313
-1.30253e-312
-2.84093e-313
1.3038e-313
2.76701e-313
1.68023e-313
-5.51639e-313
-1.65207e-312
-1.91025e-312
-8.03067e-313
-1.34633e-312
1.69413e-312
2.13695e-312
4.87738e-313
-1.7812e-312
-1.09372e-312
-4.12082e-312
-2.1976e-312
-2.72198e-312
4.68734e-313
6.79144e-314
7.23515e-313
1.92879e-313
-8.46917e-313
-1.38185e-312
-9.75483e-313
8.73551e-313
1.16585e-312
9.91964e-313
1.39228e-312
2.37415e-313
2.26323e-313
-1.53177e-315
-5.06829e-313
9.66966e-314
-5.0624e-313
-1.57606e-313
1.2623e-313
5.48646e-313
4.54054e-313
-2.80636e-314
-3.26644e-313
-1.79484e-313
-3.77275e-315
1.10586e-312
7.70289e-313
1.14432e-312
1.2018e-312
1.15885e-312
1.35347e-312
4.08247e-313
-3.09193e-314
-1.27295e-313
1.26147e-313
1.56095e-313
2.14233e-313
5.257e-314
-1.38322e-313
-2.70758e-314
5.96694e-313
9.79911e-313
9.25991e-313
9.52067e-313
7.42193e-313
7.8873e-313
3.05904e-313
3.99223e-315
7.35988e-314
4.47643e-313
1.30494e-313
-4.74495e-313
-5.40167e-313
-7.68153e-313
-9.46084e-313
-1.02024e-312
-6.64269e-313
-9.0958e-313
-3.68019e-313
-8.79442e-313
-1.07396e-313
3.80516e-313
-7.52465e-313
-6.34846e-313
-2.04185e-313
-3.29422e-314
3.31746e-313
-2.30938e-313
-1.35008e-312
-2.64908e-312
-3.05259e-312
-3.48858e-312
-9.43168e-313
8.61955e-313
2.67719e-314
1.65721e-314
6.82405e-313
-1.30142e-312
-1.43062e-312
-1.31314e-312
1.2532e-312
6.39655e-313
1.02492e-312
4.82151e-313
9.93552e-313
-7.09041e-313
-4.44354e-313
7.42062e-313
1.10583e-312
8.06958e-313
1.71653e-312
6.71399e-313
3.04698e-313
-5.05327e-313
-6.84561e-313
2.42682e-313
-6.31941e-314
-2.08758e-313
4.9716e-313
6.42215e-313
8.43736e-313
4.24752e-313
-9.91733e-314
-1.43064e-314
-9.70077e-314
9.72559e-313
9.64299e-313
9.76759e-313
1.45372e-312
8.75488e-313
1.31547e-312
4.82751e-313
3.0862e-313
1.69779e-313
3.48136e-313
3.64789e-313
2.3052e-313
3.21146e-313
-7.42558e-314
-2.15229e-313
5.99006e-313
1.17645e-312
2.76683e-313
4.1258e-313
6.84002e-313
1.4531e-313
5.19685e-313
-9.44419e-314
1.53527e-313
7.94563e-313
7.27334e-313
3.80398e-313
3.02114e-313
-9.43949e-313
-8.82589e-313
-8.48182e-313
-1.98393e-313
-9.94843e-313
-4.82344e-313
-9.21493e-314
-1.32141e-313
9.43675e-313
-4.80056e-313
-3.18676e-313
-6.35419e-313
-2.89375e-314
8.4515e-314
3.79985e-313
-1.13198e-312
-2.56347e-312
-3.82215e-312
-5.34784e-312
-3.45435e-312
-5.92403e-313
9.36732e-313
1.44663e-312
1.07649e-312
1.4861e-312
1.11394e-313
3.36667e-314
8.40761e-313
9.61124e-313
1.35604e-312
1.5139e-312
1.84823e-312
9.79113e-313
2.27457e-313
4.02971e-313
1.14861e-312
6.3186e-313
2.69978e-312
1.52228e-312
4.74134e-313
-5.15813e-313
-1.2813e-312
-5.63663e-314
-8.74509e-313
-2.539e-313
3.18942e-313
6.34317e-313
9.36643e-313
4.75897e-313
-2.74883e-313
1.06352e-313
1.73468e-313
1.24396e-312
1.21064e-312
1.01868e-312
1.33733e-312
4.87302e-313
1.67437e-312
6.42784e-313
6.96139e-313
8.86076e-315
2.32752e-313
2.57879e-313
1.7796e-313
3.11087e-313
-3.164e-313
-3.86497e-313
1.5472e-313
9.33446e-313
1.53401e-313
7.01604e-313
4.95472e-313
7.1496e-313
9.20857e-313
3.6545e-313
3.71928e-313
8.99718e-313
8.57191e-313
4.70246e-313
1.08434e-312
-8.38966e-313
-7.48048e-313
-6.30024e-313
-2.09752e-313
-5.52326e-313
1.10774e-313
3.66602e-313
7.7237e-313
1.48278e-312
-3.65624e-313
-4.25606e-313
-9.44347e-313
-1.37222e-312
-1.74958e-312
-1.29566e-313
-1.93759e-313
-2.63878e-314
-1.51185e-312
-5.08307e-312
-4.94546e-312
-1.35536e-312
1.95707e-314
1.57045e-312
3.16179e-312
4.4986e-312
2.15747e-312
1.19763e-312
8.85037e-313
5.39955e-313
5.95863e-313
1.36305e-313
5.19647e-313
-4.49999e-314
3.99162e-313
7.31013e-313
1.01844e-312
3.48329e-313
1.99893e-312
8.00857e-313
3.15066e-313
-2.1978e-313
-1.45279e-312
-1.24409e-312
-8.3121e-313
-1.60512e-313
1.80258e-313
1.03969e-312
1.63023e-312
1.24229e-312
-1.24034e-314
4.05864e-313
3.50465e-313
7.61352e-313
9.07062e-313
1.05627e-312
8.64968e-313
1.28074e-313
1.43419e-312
4.14817e-313
6.50361e-313
3.1812e-313
1.41641e-313
1.97185e-313
2.224e-313
3.5664e-313
-4.23603e-313
-5.41955e-313
-9.8109e-314
6.83221e-313
1.98809e-313
8.29417e-313
1.21569e-312
1.04469e-312
1.15507e-312
3.21468e-313
2.0565e-313
1.1731e-312
1.01908e-312
6.617e-313
1.29341e-312
-5.16457e-313
-4.80994e-313
-5.4926e-313
-5.08983e-313
-5.01077e-313
2.01275e-313
7.91274e-313
1.24261e-312
2.18608e-312
-3.10341e-313
-4.65844e-313
-4.44789e-313
-1.45163e-312
-1.24384e-312
-7.19425e-313
-1.80573e-313
7.30583e-313
1.30722e-312
-2.54931e-312
-3.66063e-312
-3.14509e-312
-1.90943e-312
-1.17774e-312
7.56145e-313
1.80061e-312
8.28067e-313
1.27603e-312
4.17774e-313
2.57399e-313
1.06505e-313
-3.58603e-313
-1.17661e-312
-4.11357e-313
-1.93511e-313
3.49172e-313
5.17348e-313
8.42872e-314
7.83493e-313
7.26428e-313
5.74893e-313
-2.81211e-313
-1.25785e-312
-1.00222e-312
-3.56569e-313
-3.37856e-313
-1.7022e-313
5.79252e-313
1.4164e-312
8.67806e-313
3.07267e-313
9.51603e-313
7.91567e-313
6.73624e-313
5.75684e-313
7.64154e-313
7.86822e-313
-2.27706e-313
1.49069e-312
6.58945e-313
7.25161e-313
3.66194e-313
2.95309e-313
1.53267e-313
3.96876e-313
6.46232e-313
-1.25158e-313
1.70847e-313
3.64513e-313
6.12364e-313
-2.2585e-314
4.98614e-313
9.03076e-313
1.22426e-312
1.13598e-312
5.91384e-313
2.58863e-313
1.18655e-312
1.12595e-312
7.275e-313
1.13399e-312
-2.85891e-313
-1.19165e-312
-1.00516e-312
-1.23767e-312
-8.75097e-313
2.83676e-314
6.51383e-313
9.21048e-313
1.60864e-312
-2.13474e-313
-8.46771e-313
1.22075e-313
-2.58977e-313
-2.57949e-313
-3.05746e-313
4.05824e-313
7.73755e-313
8.63835e-313
-2.34199e-313
-2.59984e-312
-3.32541e-312
-1.62547e-312
-2.19984e-312
-3.30706e-313
1.56678e-312
9.50034e-313
7.17e-313
-7.03936e-313
-5.85603e-313
-2.81102e-313
-5.19547e-313
-3.36475e-313
-5.26923e-313
-6.27902e-313
-4.27359e-313
-3.07997e-313
-4.0777e-313
7.58538e-313
4.09068e-313
1.75453e-313
-1.66339e-313
-1.04552e-312
-5.32383e-313
-2.4533e-313
-1.97439e-313
-4.80863e-313
-1.16775e-313
8.63331e-313
8.60648e-313
-1.84834e-313
7.19245e-313
1.13334e-312
9.72698e-313
5.02404e-313
8.6725e-313
7.38631e-313
-9.84845e-314
1.43757e-312
8.23959e-313
7.76729e-313
2.85015e-313
2.75571e-313
-8.44391e-314
5.47538e-313
6.91949e-313
-1.83619e-314
4.64591e-314
1.06808e-314
2.08804e-313
-1.13045e-314
9.27112e-314
8.49704e-313
1.29465e-312
1.44635e-312
8.06754e-313
6.52356e-314
5.50795e-313
1.24866e-312
7.96485e-313
1.20837e-312
-1.2414e-313
-1.57815e-312
-1.39767e-312
-1.10257e-312
-5.55998e-313
5.7156e-313
1.18263e-312
1.91982e-312
2.67516e-312
3.35265e-313
-7.53966e-313
-3.2218e-313
3.65244e-313
8.48618e-313
1.30322e-312
1.67917e-312
1.60005e-312
9.08189e-313
7.00786e-313
-7.81376e-313
-1.27245e-312
-1.32522e-312
-6.29856e-313
1.47104e-313
-7.02833e-313
-3.66757e-313
-2.59078e-313
-1.50854e-313
-3.0701e-313
3.82243e-313
6.69536e-313
-2.72008e-313
-1.14869e-313
-3.01431e-313
-7.89208e-313
-5.06433e-313
-1.46235e-312
3.24191e-313
-6.15285e-314
1.44405e-313
-1.35486e-313
-8.52167e-313
-7.23134e-313
-3.97519e-313
-3.55318e-313
-5.44623e-313
-4.14772e-313
6.32282e-313
5.99441e-313
-8.7573e-314
2.84313e-313
7.46973e-313
5.19877e-313
5.55165e-313
8.46134e-313
2.65604e-313
-3.70594e-314
1.30642e-312
5.36861e-313
7.1616e-313
1.2858e-313
2.55949e-313
-4.43695e-314
6.39516e-313
7.75807e-313
2.43757e-313
6.34324e-314
7.01937e-314
1.50723e-313
8.86022e-314
-1.53604e-313
6.79768e-313
1.24767e-312
1.38411e-312
1.16437e-312
2.66798e-313
4.96865e-314
1.34174e-312
7.86995e-313
1.13051e-312
6.06363e-313
-1.08878e-312
-1.11935e-312
-1.18467e-312
-1.1224e-312
5.54887e-313
9.12524e-313
2.31223e-312
2.76553e-312
8.86543e-313
-6.049e-313
5.08876e-314
-2.20995e-313
4.89627e-313
8.96821e-313
1.80143e-312
1.8304e-312
1.26223e-312
1.43422e-312
1.44056e-312
-2.46302e-313
-1.77083e-313
-7.60286e-313
8.28467e-314
-7.38545e-313
-4.78874e-313
-1.18196e-312
-6.65368e-313
-6.65568e-313
-1.18185e-312
6.38255e-313
-4.23131e-313
3.88369e-313
5.9198e-313
1.1727e-313
-6.83209e-313
-2.09092e-312
1.10232e-313
-3.30051e-313
2.79459e-313
5.18455e-313
-5.38008e-313
-4.97556e-313
-3.45243e-313
-5.81791e-313
-1.17126e-312
-1.00626e-312
6.83798e-314
5.14235e-313
-4.635e-313
4.10364e-313
-1.09358e-313
3.37602e-313
1.10473e-313
8.77494e-313
-3.71648e-313
-1.44926e-313
1.12007e-312
1.94394e-313
8.11675e-313
2.63108e-313
-5.3128e-313
-2.824e-313
5.30182e-313
7.09149e-313
2.80064e-313
-7.25034e-315
1.23069e-313
1.15891e-313
2.45602e-313
-5.63605e-314
5.82841e-313
1.29722e-312
1.61913e-312
1.2547e-312
1.35811e-313
-2.66742e-313
1.14943e-312
6.1881e-313
1.19894e-312
9.56151e-313
-8.33288e-313
-8.54107e-313
-1.20563e-312
-5.74256e-313
5.39129e-313
8.11253e-313
1.61392e-312
2.104e-312
8.07131e-313
-1.07015e-313
-9.37265e-314
-1.63888e-312
-1.54338e-312
-1.23317e-312
1.30688e-313
1.73275e-314
1.03495e-312
2.13964e-312
3.10762e-312
3.19663e-312
3.23855e-312
2.18456e-312
3.03776e-312
-2.63024e-312
-1.99448e-312
-1.05488e-312
-3.94641e-313
-1.22405e-312
-7.68148e-313
-9.91972e-313
-1.24962e-312
1.27931e-313
9.09312e-313
5.36587e-313
-5.43484e-313
-2.20458e-312
3.97556e-314
-4.63596e-313
1.0207e-313
2.86384e-313
-3.61598e-313
-3.74326e-313
-1.36486e-313
-4.40619e-313
-1.07467e-312
-8.2605e-313
-4.50376e-314
3.6746e-313
-1.01569e-312
3.72867e-313
2.2686e-313
2.09301e-313
-2.02255e-313
5.51021e-313
-7.96058e-313
-6.31674e-313
1.08898e-312
7.20975e-313
7.57352e-313
9.49593e-314
-2.72823e-313
-4.41306e-313
5.08243e-313
6.64758e-313
4.95794e-313
1.58936e-313
-2.0162e-315
-4.69609e-314
3.16056e-313
-2.2212e-313
2.81385e-313
1.22434e-312
1.86164e-312
1.39302e-312
2.35744e-313
-2.35568e-313
1.03778e-312
7.3705e-313
1.01248e-312
9.13758e-313
-1.15405e-312
-1.38383e-312
-1.20511e-312
-7.0323e-313
-2.04549e-313
5.49583e-313
1.49243e-312
1.8693e-312
9.30376e-313
-4.04046e-314
-5.71487e-313
-1.88347e-312
-1.72005e-312
-1.18811e-312
-3.81326e-313
5.15905e-313
2.51671e-312
2.62522e-312
4.45948e-312
5.21077e-312
5.24954e-312
4.63025e-312
4.51313e-312
-2.37084e-312
-1.78272e-312
1.14324e-313
1.30521e-312
9.24304e-313
-3.39606e-313
-4.92335e-313
-1.82744e-312
-7.48735e-313
3.51317e-313
1.15495e-313
-3.26821e-313
-1.96979e-312
1.66294e-313
-4.18259e-313
1.23822e-313
5.31155e-313
4.92414e-314
-3.9434e-313
2.10605e-313
-3.08242e-313
-1.20619e-312
-1.40979e-312
-4.04019e-313
2.55271e-313
-9.74924e-313
-1.26841e-313
3.66474e-313
1.69452e-313
-3.61224e-313
3.36871e-313
-1.2757e-312
-1.25216e-312
5.59682e-314
3.14999e-313
7.09815e-313
3.31952e-313
-1.11971e-313
-7.57351e-313
3.35912e-313
8.70994e-313
8.59611e-313
2.46761e-313
-5.03363e-314
-2.0078e-313
-3.03479e-313
-2.80132e-313
1.46467e-313
9.24386e-313
1.95402e-312
1.38105e-312
2.94339e-313
-2.77895e-313
6.38323e-313
1.08763e-312
8.26123e-313
1.11288e-312
-8.17369e-313
-9.21813e-313
-1.73136e-312
-1.21211e-312
-9.47459e-313
-3.97725e-313
1.33715e-312
1.73062e-312
1.55527e-312
6.74415e-313
2.88495e-313
-1.31262e-312
-8.35382e-313
-5.38669e-313
-6.88408e-313
-1.09276e-312
5.61016e-314
-1.67391e-312
-1.78024e-312
-1.37085e-312
-9.20255e-314
2.2541e-312
2.00111e-312
-3.25419e-312
-3.4133e-312
-2.28359e-312
1.65691e-313
9.16165e-313
-8.72691e-314
3.69759e-314
-1.58848e-312
-8.87134e-313
-5.75327e-313
7.22827e-314
-6.75817e-313
-2.45725e-312
4.28769e-314
-1.50867e-313
2.54696e-313
7.89618e-313
-6.27775e-315
-3.69615e-313
-1.10332e-313
-4.78952e-313
-1.06816e-312
-1.52662e-312
-5.92579e-313
2.69996e-313
-4.61751e-313
3.39244e-314
2.16212e-313
2.73471e-313
-3.4427e-313
5.36298e-313
-7.20518e-313
-1.13778e-312
3.28153e-313
1.68237e-313
1.02427e-312
3.67104e-313
1.6759e-313
-9.63115e-313
-1.16849e-313
8.71242e-313
1.19128e-312
3.76396e-313
3.29874e-316
-5.38631e-313
-5.27854e-313
-1.86285e-313
-4.23983e-313
6.53719e-313
1.97425e-312
1.61889e-312
5.2866e-313
-2.28783e-313
4.1659e-313
1.45291e-312
7.52644e-313
1.22611e-312
3.5671e-313
-3.19279e-313
-1.38114e-312
-1.17716e-312
-9.73857e-313
-1.04678e-312
5.08206e-313
1.16927e-312
9.68355e-313
1.1992e-312
1.39108e-312
-4.6147e-314
-1.25187e-312
-1.27784e-312
-2.1563e-312
-2.1264e-312
-1.95404e-312
-2.64962e-312
-2.54931e-312
-2.10631e-312
5.9862e-313
3.28524e-312
4.80357e-312
-5.60964e-313
-1.8126e-312
-1.26731e-312
-4.25635e-313
7.12381e-313
5.05041e-313
-9.99671e-313
-2.32393e-312
-2.05715e-312
-6.92585e-313
-1.93624e-313
-1.4837e-313
-2.7017e-312
-7.19063e-313
-4.19347e-313
4.04239e-313
9.94722e-313
5.41635e-313
1.71746e-313
9.7264e-314
-5.72616e-313
-1.52148e-313
-1.22827e-312
-3.09645e-313
2.05057e-313
-6.27413e-313
-3.71132e-313
7.50621e-314
-1.19442e-313
-9.94864e-314
5.77278e-313
-5.88474e-313
-1.01236e-312
3.28313e-313
1.40398e-313
5.66216e-313
-1.29925e-314
5.24841e-314
-1.11375e-312
-3.85724e-313
6.75521e-313
1.02435e-312
4.91583e-313
3.52286e-314
-4.5152e-313
-7.4559e-313
-7.65348e-313
-5.94739e-313
1.61186e-313
1.91981e-312
1.21366e-312
9.36958e-313
-1.45302e-313
-3.45997e-314
1.37435e-312
8.66655e-313
1.92684e-312
6.54696e-313
2.81572e-313
-1.38807e-312
-1.01042e-312
-1.25507e-312
-1.46389e-312
1.64453e-313
1.08669e-312
2.29238e-313
7.22252e-313
6.58232e-313
-6.56551e-313
-1.36255e-312
-1.55607e-312
-7.72969e-313
-1.92262e-312
7.18593e-314
-1.45012e-314
-3.35068e-313
-9.84807e-313
-4.63715e-313
3.30879e-312
4.09612e-312
-3.90246e-312
-2.97605e-312
-3.14392e-312
-1.66408e-312
3.82464e-313
6.70566e-313
-8.07102e-313
-1.23908e-312
-1.53297e-312
-2.16728e-313
5.58581e-313
3.83781e-313
-1.8076e-312
-2.97001e-313
-2.06934e-313
4.53273e-313
1.17499e-312
3.22716e-313
4.86439e-313
5.1293e-313
-6.40275e-313
-4.30722e-313
-1.09853e-312
-5.04719e-313
1.44418e-313
-7.64492e-313
-7.06562e-313
5.21202e-314
-3.91824e-313
-2.62603e-313
-3.20975e-314
-3.8385e-313
-8.40848e-313
-2.73399e-316
3.2195e-313
1.08446e-312
7.30625e-313
1.3584e-313
-8.35322e-313
-3.29933e-313
3.62729e-313
7.27883e-313
5.39552e-313
3.96065e-313
-7.8734e-314
-6.66285e-313
-8.93377e-313
-8.44081e-313
-7.52735e-313
1.82024e-312
1.262e-312
1.16362e-312
6.36034e-314
-1.42556e-313
1.41809e-312
9.22237e-313
1.87693e-312
5.57985e-313
1.61217e-313
-1.12691e-312
-3.97163e-313
-8.26328e-313
-1.35771e-312
1.80753e-313
9.66396e-313
8.37566e-313
5.7397e-313
8.13666e-313
-9.79186e-314
-1.27793e-312
2.19328e-314
6.0149e-313
-4.50512e-313
6.99831e-313
1.68078e-312
1.90968e-312
3.35824e-313
-5.12678e-313
1.28106e-312
3.73356e-312
-2.10833e-312
-1.38862e-312
-2.46532e-312
-1.86537e-312
-2.03958e-312
-1.61304e-313
-1.85128e-312
-1.6135e-312
-1.47408e-312
-8.60324e-313
8.0408e-313
7.10652e-313
-1.16628e-312
-4.38164e-313
-5.13921e-314
8.08401e-313
1.55292e-312
5.3707e-313
6.03551e-313
6.83735e-313
-5.18651e-313
-2.88539e-313
-9.44036e-313
-5.75409e-313
-6.14361e-313
-7.68527e-313
-4.56866e-313
-3.42887e-313
1.53249e-313
-3.57772e-313
-1.28249e-314
-2.7826e-313
-4.99131e-313
-3.25503e-314
5.17935e-313
1.21123e-312
6.17881e-313
9.36264e-314
-7.96267e-313
-7.91165e-313
3.26845e-314
7.69716e-313
5.25569e-313
5.47002e-313
6.64217e-313
-7.97532e-314
-1.02096e-312
-9.14274e-313
-1.00732e-312
1.1565e-312
1.27615e-312
1.28816e-312
4.64534e-313
2.75287e-314
1.19433e-312
1.19552e-312
1.81912e-312
1.02113e-312
6.51867e-313
-6.3834e-313
-2.23909e-314
-8.80511e-313
-1.29746e-312
3.77207e-313
5.43143e-313
8.12412e-313
1.22562e-312
1.0993e-312
3.14089e-313
-1.10048e-313
7.32526e-313
1.20236e-312
4.12343e-313
1.15861e-312
1.73301e-312
1.31756e-312
7.63269e-313
-1.19281e-312
-1.99064e-312
-8.94964e-313
-2.14078e-312
-9.19022e-313
-2.32823e-312
-1.9926e-312
-2.40136e-312
-1.28745e-312
-1.68739e-312
-2.04856e-312
-3.10195e-312
-7.51639e-313
3.58113e-313
1.42628e-312
5.05725e-314
2.89304e-314
1.10907e-313
1.4161e-312
1.46907e-312
6.32079e-313
5.34003e-313
4.717e-313
-2.62099e-313
1.46734e-313
-8.73722e-313
-3.60886e-313
-4.3139e-313
-1.05138e-312
-8.24852e-313
-6.91689e-313
-2.50573e-313
-6.71407e-313
3.25229e-313
-2.5709e-313
-3.50832e-313
-3.72777e-314
5.08853e-313
1.03405e-312
3.55384e-313
4.22958e-313
-6.97553e-313
-8.03551e-313
-9.88298e-315
8.20734e-313
7.07437e-313
9.29992e-313
1.33393e-312
5.8349e-313
-1.12114e-312
-8.60728e-313
-9.60677e-313
7.39141e-313
1.32865e-312
1.36816e-312
6.44601e-313
1.4575e-313
1.34784e-312
1.40721e-312
1.658e-312
8.76225e-313
2.46045e-313
-3.19334e-313
3.5755e-313
-5.97892e-313
-9.35587e-313
6.53611e-313
5.31019e-313
3.66744e-313
9.29832e-313
8.75439e-313
2.36635e-313
1.06724e-313
-2.56652e-313
-2.27964e-314
4.63301e-313
1.38358e-313
1.45499e-312
1.37392e-312
1.4019e-312
-4.96278e-313
-2.3963e-312
-2.39664e-312
-4.42183e-313
-2.01366e-313
-2.84394e-312
-1.7551e-312
-1.79134e-312
-1.30471e-312
-1.58152e-312
-1.39407e-312
-2.56625e-312
-8.72992e-313
-3.07811e-313
6.2479e-313
-3.46069e-314
-1.08598e-313
2.66222e-313
6.22264e-313
1.69525e-312
6.39221e-313
5.41256e-313
2.61309e-313
-1.55161e-313
-6.79157e-315
-6.6217e-313
-7.99687e-313
4.05294e-315
-7.92641e-313
-8.1329e-313
-6.76162e-313
-2.03177e-313
-8.75513e-313
-1.66531e-313
-3.15851e-313
-5.93541e-314
1.12603e-314
6.64294e-313
9.35941e-313
6.56092e-313
9.9856e-314
-6.20801e-313
-1.15048e-312
-2.915e-313
7.92131e-313
9.23957e-313
7.1991e-313
1.15272e-312
4.47909e-313
-5.57021e-313
-9.90712e-313
-9.95745e-313
-7.03814e-314
1.20336e-312
1.29396e-312
9.76873e-313
1.6358e-313
1.11877e-312
1.41942e-312
1.91854e-312
1.06758e-312
6.71531e-313
8.21364e-314
5.51333e-313
-2.09783e-313
-5.96681e-313
5.46507e-313
5.50628e-313
6.15203e-313
6.25368e-313
4.29979e-313
-1.12943e-313
-1.10858e-312
-1.14297e-312
-9.28249e-313
-9.40568e-313
-8.1341e-313
-1.08083e-312
4.34708e-313
9.13749e-313
1.01898e-312
1.55084e-312
4.38744e-313
-1.91955e-312
-8.79985e-314
-1.0867e-312
-9.12557e-313
-1.66897e-312
1.0089e-313
-1.55193e-312
-8.62169e-313
-1.41485e-312
-1.52181e-312
-1.02689e-312
3.58976e-314
-6.86478e-313
-3.66536e-313
2.0193e-313
1.82927e-313
1.90129e-312
8.413e-313
7.19692e-313
7.64308e-313
1.82358e-313
-2.55421e-313
1.15591e-313
-8.31781e-313
-1.05296e-313
-5.04361e-313
-8.55245e-313
-1.04787e-312
-5.37862e-313
-1.01157e-312
-5.01635e-313
-3.48335e-313
1.99669e-313
-3.43753e-313
7.94068e-313
8.33073e-313
9.52383e-313
3.00786e-313
-7.76824e-313
-1.31921e-312
-5.47534e-313
6.48072e-313
6.52532e-313
4.29849e-313
1.50346e-312
6.21903e-313
-2.31194e-314
-1.03935e-312
-1.03464e-312
-5.5171e-313
1.22267e-312
1.02191e-312
1.08861e-312
4.57007e-313
1.06976e-312
2.07894e-312
2.06211e-312
1.62724e-312
8.99888e-313
1.28307e-314
1.28093e-313
-1.36475e-313
-1.26889e-312
3.739e-313
4.37894e-313
6.83886e-313
5.49989e-313
1.78632e-313
-2.15631e-313
3.12924e-313
-6.6348e-313
3.95222e-313
-1.27658e-312
-2.41447e-312
-2.79346e-312
-1.5355e-312
3.53485e-315
9.39815e-313
1.98243e-312
3.12264e-312
2.51998e-312
2.24376e-312
1.14592e-312
-5.24067e-313
-1.45194e-312
2.07241e-313
-8.26834e-313
-6.08161e-313
-1.19373e-312
-1.55581e-312
-8.76268e-313
1.45309e-313
-5.84642e-313
-2.9744e-313
1.95441e-313
4.47579e-315
1.57664e-312
5.85388e-313
6.68061e-313
2.35339e-313
1.1126e-312
6.44171e-313
5.42592e-313
-6.0755e-313
6.01772e-314
-6.68251e-313
-1.08813e-312
-1.37273e-312
-6.1163e-313
-7.46324e-313
-4.44762e-313
-2.66514e-313
3.65881e-313
-4.83231e-313
2.24151e-313
7.88853e-313
7.50022e-313
5.30575e-313
-3.27362e-313