/*--------------------------------*- C++ -*----------------------------------*\
  =========                 |
  \\      /  F ield         | OpenFOAM: The Open Source CFD Toolbox
   \\    /   O peration     | Website:  https://openfoam.org
    \\  /    A nd           | Version:  11
     \\/     M anipulation  |
\*---------------------------------------------------------------------------*/
FoamFile
{
    format      ascii;
    class       volScalarField;
    location    "5";
    object      C;
}
// * * * * * * * * * * * * * * * * * * * * * * * * * * * * * * * * * * * * * //

dimensions      [0 0 0 1 0 0 0];

internalField   nonuniform List<scalar> 
332800
(
3.06061e-65
3.00025e-65
2.89859e-65
2.76847e-65
2.61922e-65
2.45801e-65
2.29044e-65
2.12093e-65
1.95297e-65
1.78922e-65
1.63172e-65
1.48191e-65
1.34079e-65
1.20897e-65
1.08675e-65
9.74164e-66
8.71072e-66
7.77174e-66
6.92065e-66
6.15264e-66
5.46243e-66
4.84447e-66
4.29317e-66
3.80296e-66
3.36847e-66
2.98457e-66
2.64643e-66
2.34955e-66
2.08979e-66
1.86336e-66
1.66685e-66
1.49721e-66
1.3517e-66
1.22795e-66
1.12389e-66
1.03774e-66
9.68006e-67
9.13479e-67
8.73195e-67
8.46434e-67
8.3272e-67
8.31802e-67
8.4366e-67
8.68498e-67
9.06748e-67
9.59069e-67
1.02636e-66
1.10975e-66
1.21063e-66
1.33064e-66
1.4717e-66
1.63599e-66
1.82597e-66
2.0444e-66
2.29431e-66
2.57901e-66
2.90208e-66
3.2673e-66
3.67868e-66
4.14034e-66
4.65646e-66
5.23116e-66
5.86838e-66
6.57172e-66
7.3442e-66
8.18803e-66
9.10433e-66
1.00927e-65
1.1151e-65
1.22746e-65
1.34561e-65
1.46845e-65
1.59446e-65
1.72165e-65
1.84739e-65
1.96838e-65
2.08039e-65
2.17807e-65
2.25438e-65
2.29969e-65
9.47104e-65
9.33061e-65
9.07921e-65
8.7423e-65
8.34173e-65
7.89617e-65
7.42144e-65
6.93086e-65
6.43544e-65
5.94416e-65
5.46418e-65
5.00104e-65
4.55891e-65
4.14071e-65
3.74836e-65
3.38295e-65
3.04481e-65
2.73377e-65
2.44918e-65
2.19006e-65
1.95521e-65
1.74324e-65
1.55268e-65
1.38202e-65
1.22971e-65
1.09426e-65
9.74219e-66
8.6822e-66
7.74973e-66
6.93283e-66
6.22055e-66
5.60296e-66
5.07114e-66
4.6172e-66
4.23419e-66
3.91614e-66
3.658e-66
3.4556e-66
3.30562e-66
3.20557e-66
3.15379e-66
3.14937e-66
3.1922e-66
3.28293e-66
3.42299e-66
3.61456e-66
3.86063e-66
4.16496e-66
4.53211e-66
4.96748e-66
5.47727e-66
6.06852e-66
6.74907e-66
7.52755e-66
8.41336e-66
9.41654e-66
1.05477e-65
1.1818e-65
1.32387e-65
1.4821e-65
1.6576e-65
1.85138e-65
2.06434e-65
2.29722e-65
2.55047e-65
2.82424e-65
3.11826e-65
3.43172e-65
3.76319e-65
4.11044e-65
4.47038e-65
4.83882e-65
5.21041e-65
5.5784e-65
5.93454e-65
6.26882e-65
6.56938e-65
6.82219e-65
7.01085e-65
7.11625e-65
1.64796e-64
1.62696e-64
1.58856e-64
1.53612e-64
1.47273e-64
1.40116e-64
1.32388e-64
1.24303e-64
1.16045e-64
1.07769e-64
9.9602e-65
9.16477e-65
8.39861e-65
7.66777e-65
6.97654e-65
6.32774e-65
5.72292e-65
5.16259e-65
4.64639e-65
4.17331e-65
3.74184e-65
3.35006e-65
2.99582e-65
2.6768e-65
2.3906e-65
2.13479e-65
1.90701e-65
1.70496e-65
1.52646e-65
1.36946e-65
1.23205e-65
1.11249e-65
1.0092e-65
9.2077e-66
8.45957e-66
7.83675e-66
7.33005e-66
6.93183e-66
6.63598e-66
6.43789e-66
6.33444e-66
6.3239e-66
6.406e-66
6.58185e-66
6.85397e-66
7.22626e-66
7.70404e-66
8.29401e-66
9.00429e-66
9.84438e-66
1.08252e-65
1.19589e-65
1.32591e-65
1.47406e-65
1.6419e-65
1.83113e-65
2.04347e-65
2.28069e-65
2.54458e-65
2.83683e-65
3.15905e-65
3.51264e-65
3.89872e-65
4.31804e-65
4.77084e-65
5.25673e-65
5.77455e-65
6.32217e-65
6.89636e-65
7.49259e-65
8.10481e-65
8.72533e-65
9.34455e-65
9.95086e-65
1.05305e-64
1.10672e-64
1.15428e-64
1.19361e-64
1.22242e-64
1.23818e-64
2.43579e-64
2.40783e-64
2.35615e-64
2.28484e-64
2.19779e-64
2.09861e-64
1.99057e-64
1.87658e-64
1.75922e-64
1.6407e-64
1.52287e-64
1.4073e-64
1.2952e-64
1.18756e-64
1.0851e-64
9.8832e-65
8.97555e-65
8.12971e-65
7.34605e-65
6.62389e-65
5.96172e-65
5.35737e-65
4.8082e-65
4.31125e-65
3.86337e-65
3.46128e-65
3.10173e-65
2.78152e-65
2.49753e-65
2.24684e-65
2.02669e-65
1.83452e-65
1.66802e-65
1.52508e-65
1.40383e-65
1.30266e-65
1.22016e-65
1.15518e-65
1.10678e-65
1.07425e-65
1.05711e-65
1.05508e-65
1.06811e-65
1.09636e-65
1.1402e-65
1.2002e-65
1.27715e-65
1.37204e-65
1.48607e-65
1.62064e-65
1.77733e-65
1.95792e-65
2.16435e-65
2.39873e-65
2.66329e-65
2.96034e-65
3.29226e-65
3.66144e-65
4.07018e-65
4.52067e-65
5.01484e-65
5.55428e-65
6.14008e-65
6.77274e-65
7.45195e-65
8.17642e-65
8.9437e-65
9.74995e-65
1.05897e-64
1.14558e-64
1.23388e-64
1.32271e-64
1.41068e-64
1.49614e-64
1.57715e-64
1.65152e-64
1.71679e-64
1.77027e-64
1.80903e-64
1.83e-64
3.33807e-64
3.30258e-64
3.23658e-64
3.14495e-64
3.03241e-64
2.90341e-64
2.76204e-64
2.61203e-64
2.45669e-64
2.29892e-64
2.14121e-64
1.98567e-64
1.834e-64
1.68759e-64
1.54751e-64
1.41453e-64
1.28919e-64
1.17182e-64
1.06255e-64
9.61399e-65
8.68225e-65
7.82811e-65
7.04863e-65
6.34032e-65
5.69936e-65
5.12171e-65
4.60323e-65
4.1398e-65
3.72739e-65
3.36215e-65
3.04041e-65
2.75876e-65
2.51405e-65
2.30343e-65
2.12436e-65
1.97461e-65
1.85223e-65
1.75563e-65
1.6835e-65
1.63484e-65
1.60896e-65
1.60548e-65
1.6243e-65
1.66563e-65
1.72995e-65
1.81804e-65
1.93097e-65
2.07007e-65
2.23695e-65
2.4335e-65
2.66182e-65
2.92428e-65
3.22343e-65
3.56202e-65
3.94292e-65
4.36911e-65
4.84356e-65
5.36922e-65
5.94888e-65
6.58506e-65
7.2799e-65
8.03502e-65
8.85131e-65
9.72875e-65
1.06662e-64
1.16613e-64
1.27098e-64
1.3806e-64
1.49418e-64
1.61069e-64
1.72884e-64
1.84705e-64
1.96345e-64
2.07588e-64
2.18183e-64
2.27853e-64
2.36289e-64
2.43159e-64
2.48108e-64
2.50769e-64
4.38468e-64
4.3407e-64
4.25859e-64
4.14416e-64
4.00305e-64
3.84063e-64
3.66192e-64
3.4715e-64
3.27349e-64
3.07156e-64
2.86886e-64
2.66811e-64
2.47155e-64
2.28103e-64
2.09799e-64
1.92352e-64
1.75842e-64
1.60319e-64
1.45812e-64
1.3233e-64
1.19863e-64
1.08392e-64
9.78852e-65
8.83033e-65
7.96022e-65
7.17337e-65
6.4648e-65
5.82945e-65
5.26234e-65
4.75862e-65
4.31366e-65
3.92312e-65
3.58296e-65
3.28953e-65
3.0395e-65
2.82996e-65
2.6584e-65
2.52269e-65
2.42111e-65
2.35233e-65
2.31544e-65
2.30989e-65
2.33555e-65
2.39267e-65
2.48184e-65
2.60409e-65
2.76075e-65
2.95354e-65
3.18452e-65
3.45608e-65
3.7709e-65
4.13195e-65
4.54244e-65
5.00578e-65
5.52551e-65
6.10523e-65
6.74854e-65
7.45889e-65
8.23951e-65
9.09319e-65
1.00222e-64
1.1028e-64
1.21111e-64
1.32709e-64
1.45051e-64
1.581e-64
1.71794e-64
1.86053e-64
2.00767e-64
2.15798e-64
2.30977e-64
2.46102e-64
2.60934e-64
2.752e-64
2.8859e-64
3.0076e-64
3.11334e-64
3.1991e-64
3.26065e-64
3.29362e-64
5.60948e-64
5.55569e-64
5.45502e-64
5.31435e-64
5.14042e-64
4.93967e-64
4.71815e-64
4.4814e-64
4.23449e-64
3.98191e-64
3.72759e-64
3.47491e-64
3.22673e-64
2.98539e-64
2.75277e-64
2.53034e-64
2.31916e-64
2.11997e-64
1.93321e-64
1.75907e-64
1.59755e-64
1.44846e-64
1.31147e-64
1.18616e-64
1.07203e-64
9.68511e-65
8.75028e-65
7.90973e-65
7.15745e-65
6.48753e-65
5.89431e-65
5.37243e-65
4.91687e-65
4.52305e-65
4.18683e-65
3.90454e-65
3.67297e-65
3.48943e-65
3.35173e-65
3.25817e-65
3.20755e-65
3.19918e-65
3.23285e-65
3.30883e-65
3.42788e-65
3.59121e-65
3.80052e-65
4.05791e-65
4.36594e-65
4.72752e-65
5.14598e-65
5.62493e-65
6.16827e-65
6.7801e-65
7.46468e-65
8.22627e-65
9.06907e-65
9.99705e-65
1.10138e-64
1.21224e-64
1.33252e-64
1.46233e-64
1.60168e-64
1.75042e-64
1.90821e-64
2.07448e-64
2.24843e-64
2.42896e-64
2.61467e-64
2.80378e-64
2.99416e-64
3.18326e-64
3.36815e-64
3.54544e-64
3.71135e-64
3.86172e-64
3.99202e-64
4.0974e-64
4.17284e-64
4.21314e-64
7.05169e-64
6.98642e-64
6.86403e-64
6.69273e-64
6.48054e-64
6.23514e-64
5.96379e-64
5.67319e-64
5.36944e-64
5.05801e-64
4.7437e-64
4.43067e-64
4.12247e-64
3.82201e-64
3.53168e-64
3.25335e-64
2.98841e-64
2.73786e-64
2.50232e-64
2.28214e-64
2.07736e-64
1.88783e-64
1.71325e-64
1.55313e-64
1.40692e-64
1.27398e-64
1.15363e-64
1.04516e-64
9.47851e-65
8.61004e-65
7.83934e-65
7.15991e-65
6.56567e-65
6.05101e-65
5.61084e-65
5.24062e-65
4.93642e-65
4.69488e-65
4.51326e-65
4.38944e-65
4.32192e-65
4.30978e-65
4.35275e-65
4.45113e-65
4.60582e-65
4.81829e-65
5.09057e-65
5.42521e-65
5.8253e-65
6.29437e-65
6.83639e-65
7.45572e-65
8.15699e-65
8.94509e-65
9.82498e-65
1.08017e-64
1.188e-64
1.30644e-64
1.4359e-64
1.5767e-64
1.72907e-64
1.8931e-64
2.06873e-64
2.2557e-64
2.45354e-64
2.66149e-64
2.8785e-64
3.10314e-64
3.33366e-64
3.56783e-64
3.80301e-64
4.03608e-64
4.26343e-64
4.48097e-64
4.68412e-64
4.86786e-64
5.02676e-64
5.15505e-64
5.24671e-64
5.29561e-64
8.75732e-64
8.67848e-64
8.5305e-64
8.32312e-64
8.06589e-64
7.768e-64
7.43812e-64
7.08429e-64
6.71386e-64
6.33341e-64
5.94878e-64
5.56503e-64
5.18647e-64
4.81673e-64
4.45874e-64
4.11484e-64
3.78682e-64
3.47596e-64
3.18312e-64
2.90876e-64
2.65305e-64
2.41588e-64
2.19692e-64
1.99568e-64
1.81152e-64
1.64372e-64
1.4915e-64
1.35401e-64
1.23043e-64
1.11992e-64
1.02167e-64
9.34899e-65
8.58875e-65
7.92924e-65
7.36428e-65
6.88839e-65
6.49674e-65
6.18525e-65
5.95055e-65
5.79003e-65
5.70182e-65
5.68479e-65
5.73854e-65
5.86342e-65
6.06046e-65
6.33142e-65
6.67871e-65
7.10539e-65
7.61511e-65
8.2121e-65
8.90106e-65
9.68716e-65
1.05759e-64
1.15729e-64
1.2684e-64
1.39151e-64
1.52716e-64
1.67587e-64
1.83807e-64
2.01411e-64
2.20422e-64
2.40845e-64
2.62667e-64
2.85851e-64
3.10331e-64
3.36011e-64
3.62754e-64
3.90386e-64
4.18685e-64
4.47381e-64
4.76148e-64
5.04607e-64
5.32322e-64
5.58798e-64
5.83485e-64
6.05781e-64
6.25035e-64
6.4056e-64
6.51639e-64
6.57542e-64
1.07808e-63
1.06858e-63
1.05075e-63
1.02574e-63
9.94684e-64
9.58686e-64
9.1878e-64
8.75928e-64
8.31012e-64
7.84824e-64
7.38066e-64
6.91351e-64
6.45203e-64
6.00061e-64
5.56287e-64
5.1417e-64
4.73932e-64
4.35734e-64
3.99689e-64
3.65861e-64
3.34276e-64
3.0493e-64
2.77788e-64
2.52797e-64
2.29887e-64
2.08975e-64
1.8997e-64
1.72776e-64
1.57294e-64
1.43427e-64
1.31077e-64
1.20154e-64
1.10569e-64
1.02243e-64
9.50999e-65
8.90748e-65
8.41094e-65
8.01542e-65
7.71684e-65
7.51202e-65
7.39866e-65
7.37535e-65
7.44159e-65
7.59774e-65
7.84501e-65
8.18544e-65
8.62189e-65
9.15797e-65
9.79801e-65
1.0547e-64
1.14105e-64
1.23945e-64
1.35055e-64
1.47502e-64
1.61352e-64
1.76673e-64
1.93528e-64
2.11974e-64
2.32061e-64
2.53825e-64
2.77288e-64
3.02451e-64
3.29293e-64
3.57763e-64
3.87775e-64
4.19207e-64
4.51891e-64
4.8561e-64
5.20091e-64
5.55006e-64
5.89961e-64
6.24497e-64
6.58087e-64
6.90138e-64
7.1999e-64
7.46922e-64
7.70157e-64
7.88874e-64
8.0222e-64
8.09325e-64
1.31866e-63
1.30725e-63
1.28581e-63
1.25572e-63
1.21833e-63
1.17496e-63
1.12684e-63
1.07513e-63
1.02088e-63
9.65042e-64
9.08459e-64
8.51868e-64
7.95903e-64
7.41095e-64
6.87885e-64
6.36624e-64
5.87587e-64
5.40976e-64
4.9693e-64
4.55536e-64
4.16833e-64
3.80819e-64
3.47462e-64
3.16704e-64
2.88464e-64
2.62649e-64
2.39153e-64
2.17865e-64
1.98669e-64
1.81451e-64
1.66097e-64
1.52497e-64
1.40549e-64
1.30155e-64
1.21229e-64
1.1369e-64
1.07469e-64
1.02507e-64
9.87548e-65
9.61735e-65
9.47354e-65
9.44232e-65
9.52304e-65
9.71608e-65
1.00228e-64
1.04457e-64
1.0988e-64
1.1654e-64
1.24488e-64
1.33783e-64
1.4449e-64
1.56679e-64
1.70426e-64
1.85809e-64
2.02906e-64
2.21794e-64
2.42544e-64
2.65224e-64
2.89886e-64
3.16571e-64
3.45299e-64
3.76068e-64
4.08845e-64
4.43564e-64
4.80117e-64
5.18351e-64
5.5806e-64
5.98977e-64
6.40774e-64
6.8305e-64
7.2533e-64
7.67063e-64
8.07615e-64
8.46275e-64
8.82254e-64
9.14687e-64
9.42649e-64
9.65159e-64
9.81199e-64
9.89733e-64
1.60516e-63
1.59148e-63
1.56573e-63
1.52959e-63
1.48466e-63
1.43251e-63
1.37463e-63
1.31238e-63
1.24703e-63
1.17973e-63
1.11147e-63
1.04315e-63
9.75525e-64
9.09243e-64
8.44834e-64
7.82724e-64
7.23247e-64
6.66654e-64
6.13118e-64
5.62749e-64
5.15599e-64
4.71674e-64
4.30941e-64
3.93336e-64
3.58768e-64
3.27128e-64
2.98296e-64
2.72141e-64
2.48528e-64
2.27323e-64
2.08391e-64
1.91603e-64
1.76837e-64
1.63979e-64
1.52924e-64
1.43577e-64
1.35857e-64
1.2969e-64
1.2502e-64
1.21798e-64
1.19993e-64
1.19582e-64
1.20557e-64
1.22923e-64
1.26695e-64
1.31901e-64
1.38581e-64
1.46784e-64
1.56571e-64
1.68009e-64
1.81176e-64
1.96154e-64
2.13032e-64
2.31899e-64
2.52848e-64
2.75966e-64
3.01338e-64
3.29036e-64
3.59123e-64
3.91642e-64
4.26612e-64
4.64026e-64
5.03839e-64
5.45966e-64
5.90274e-64
6.36574e-64
6.84614e-64
7.34072e-64
7.84549e-64
8.35563e-64
8.86541e-64
9.36823e-64
9.85648e-64
1.03217e-63
1.07543e-63
1.11441e-63
1.148e-63
1.17502e-63
1.19427e-63
1.20451e-63
1.94676e-63
1.93035e-63
1.89948e-63
1.85611e-63
1.80219e-63
1.73958e-63
1.67005e-63
1.59525e-63
1.51668e-63
1.43572e-63
1.35356e-63
1.27128e-63
1.18979e-63
1.10986e-63
1.03213e-63
9.57115e-64
8.85228e-64
8.16768e-64
7.51951e-64
6.90913e-64
6.33724e-64
5.80396e-64
5.30896e-64
4.85151e-64
4.43058e-64
4.04493e-64
3.69313e-64
3.37368e-64
3.08499e-64
2.82547e-64
2.59354e-64
2.38768e-64
2.20645e-64
2.04849e-64
1.91255e-64
1.79751e-64
1.70239e-64
1.62633e-64
1.56864e-64
1.52876e-64
1.50628e-64
1.50095e-64
1.51266e-64
1.54146e-64
1.58753e-64
1.65119e-64
1.73291e-64
1.83327e-64
1.95297e-64
2.09282e-64
2.25372e-64
2.43664e-64
2.6426e-64
2.87267e-64
3.12791e-64
3.40934e-64
3.71793e-64
4.05453e-64
4.41983e-64
4.81429e-64
5.23813e-64
5.69118e-64
6.17287e-64
6.68216e-64
7.21738e-64
7.77624e-64
8.35568e-64
8.9518e-64
9.55979e-64
1.01739e-63
1.07872e-63
1.13917e-63
1.19785e-63
1.25372e-63
1.30566e-63
1.35244e-63
1.39274e-63
1.42515e-63
1.44822e-63
1.46049e-63
2.3544e-63
2.33473e-63
2.29773e-63
2.24575e-63
2.18109e-63
2.10599e-63
2.02257e-63
1.93279e-63
1.83845e-63
1.7412e-63
1.64248e-63
1.54355e-63
1.44553e-63
1.34934e-63
1.25574e-63
1.16536e-63
1.0787e-63
9.96108e-64
9.1786e-64
8.44123e-64
7.74984e-64
7.10464e-64
6.50529e-64
5.95095e-64
5.44046e-64
4.97236e-64
4.545e-64
4.15661e-64
3.80532e-64
3.48926e-64
3.20658e-64
2.95547e-64
2.73422e-64
2.54122e-64
2.37499e-64
2.23422e-64
2.11771e-64
2.02447e-64
1.95364e-64
1.90458e-64
1.87678e-64
1.86995e-64
1.88395e-64
1.91883e-64
1.9748e-64
2.05224e-64
2.15168e-64
2.27382e-64
2.41948e-64
2.58961e-64
2.78526e-64
3.00758e-64
3.25776e-64
3.53705e-64
3.84669e-64
4.18787e-64
4.56171e-64
4.9692e-64
5.41111e-64
5.88797e-64
6.39997e-64
6.9469e-64
7.52802e-64
8.14203e-64
8.78691e-64
9.45987e-64
1.01572e-63
1.08742e-63
1.16052e-63
1.23431e-63
1.30797e-63
1.38055e-63
1.45097e-63
1.518e-63
1.5803e-63
1.63638e-63
1.68468e-63
1.72351e-63
1.75115e-63
1.76585e-63
2.84115e-63
2.81759e-63
2.77327e-63
2.71098e-63
2.6335e-63
2.54349e-63
2.44348e-63
2.33581e-63
2.22265e-63
2.10596e-63
1.98746e-63
1.86868e-63
1.75094e-63
1.63535e-63
1.52283e-63
1.41413e-63
1.30984e-63
1.21041e-63
1.11615e-63
1.02728e-63
9.43903e-64
8.66048e-64
7.93678e-64
7.26701e-64
6.64981e-64
6.08348e-64
5.56609e-64
5.09554e-64
4.66966e-64
4.28622e-64
3.94303e-64
3.63797e-64
3.369e-64
3.13422e-64
2.93188e-64
2.76039e-64
2.61836e-64
2.50458e-64
2.41806e-64
2.35801e-64
2.32383e-64
2.31517e-64
2.33185e-64
2.37392e-64
2.44164e-64
2.53545e-64
2.65597e-64
2.80402e-64
2.98056e-64
3.18671e-64
3.42371e-64
3.69291e-64
3.99572e-64
4.33359e-64
4.70797e-64
5.12027e-64
5.57179e-64
6.06366e-64
6.59678e-64
7.17175e-64
7.78876e-64
8.44748e-64
9.14704e-64
9.8858e-64
1.06613e-63
1.14703e-63
1.23081e-63
1.31693e-63
1.40468e-63
1.49324e-63
1.58161e-63
1.66867e-63
1.75309e-63
1.83344e-63
1.90809e-63
1.97528e-63
2.03313e-63
2.07964e-63
2.11274e-63
2.13033e-63
3.42263e-63
3.39443e-63
3.34135e-63
3.26676e-63
3.17395e-63
3.06611e-63
2.94627e-63
2.81724e-63
2.6816e-63
2.54168e-63
2.39957e-63
2.25708e-63
2.1158e-63
1.97705e-63
1.84194e-63
1.71138e-63
1.58607e-63
1.46654e-63
1.35319e-63
1.24626e-63
1.1459e-63
1.05214e-63
9.6494e-64
8.84198e-64
8.09753e-64
7.41407e-64
6.78932e-64
6.22082e-64
5.70598e-64
5.24219e-64
4.82686e-64
4.45745e-64
4.13156e-64
3.84694e-64
3.6015e-64
3.39335e-64
3.22085e-64
3.08256e-64
2.97729e-64
2.90408e-64
2.86225e-64
2.85135e-64
2.87119e-64
2.9218e-64
3.00348e-64
3.11674e-64
3.26234e-64
3.44122e-64
3.65452e-64
3.90357e-64
4.18981e-64
4.51484e-64
4.88032e-64
5.28796e-64
5.73948e-64
6.2365e-64
6.78057e-64
7.37299e-64
8.01481e-64
8.70671e-64
9.44886e-64
1.02409e-63
1.10816e-63
1.19691e-63
1.29005e-63
1.38716e-63
1.48771e-63
1.59103e-63
1.69627e-63
1.80245e-63
1.90839e-63
2.01271e-63
2.11387e-63
2.21011e-63
2.29952e-63
2.37998e-63
2.44924e-63
2.50491e-63
2.54453e-63
2.56559e-63
4.11753e-63
4.08377e-63
4.02023e-63
3.93092e-63
3.81979e-63
3.69065e-63
3.54711e-63
3.39254e-63
3.23003e-63
3.06236e-63
2.89204e-63
2.72123e-63
2.55182e-63
2.38541e-63
2.22333e-63
2.06665e-63
1.91624e-63
1.77272e-63
1.63657e-63
1.50809e-63
1.38746e-63
1.27471e-63
1.16982e-63
1.07265e-63
9.83023e-64
9.007e-64
8.25416e-64
7.56878e-64
6.94782e-64
6.38816e-64
5.88673e-64
5.44055e-64
5.04674e-64
4.70263e-64
4.40574e-64
4.15385e-64
3.94496e-64
3.77739e-64
3.6497e-64
3.56077e-64
3.50977e-64
3.49616e-64
3.5197e-64
3.58045e-64
3.67873e-64
3.81516e-64
3.99061e-64
4.20621e-64
4.46331e-64
4.76345e-64
5.10837e-64
5.49994e-64
5.94012e-64
6.43093e-64
6.97439e-64
7.57243e-64
8.22683e-64
8.93915e-64
9.71061e-64
1.0542e-63
1.14334e-63
1.23844e-63
1.33936e-63
1.44586e-63
1.55759e-63
1.67406e-63
1.79462e-63
1.91847e-63
2.0446e-63
2.17182e-63
2.29873e-63
2.42368e-63
2.54482e-63
2.66006e-63
2.76709e-63
2.86341e-63
2.9463e-63
3.01293e-63
3.06034e-63
3.08553e-63
4.94819e-63
4.90778e-63
4.83173e-63
4.72482e-63
4.59178e-63
4.43716e-63
4.26529e-63
4.0802e-63
3.88556e-63
3.68473e-63
3.48068e-63
3.27602e-63
3.073e-63
2.87355e-63
2.67923e-63
2.49136e-63
2.31095e-63
2.13878e-63
1.9754e-63
1.82118e-63
1.67634e-63
1.54093e-63
1.4149e-63
1.29812e-63
1.19037e-63
1.09136e-63
1.00078e-63
9.18294e-64
8.43528e-64
7.76118e-64
7.15699e-64
6.61914e-64
6.14425e-64
5.72912e-64
5.37082e-64
5.06668e-64
4.81434e-64
4.61178e-64
4.45731e-64
4.34958e-64
4.28759e-64
4.2707e-64
4.29862e-64
4.3714e-64
4.48944e-64
4.65346e-64
4.86449e-64
5.12385e-64
5.43314e-64
5.79421e-64
6.20909e-64
6.68e-64
7.20927e-64
7.79927e-64
8.4524e-64
9.17093e-64
9.95698e-64
1.08124e-63
1.17385e-63
1.27363e-63
1.38059e-63
1.49466e-63
1.6157e-63
1.74339e-63
1.87732e-63
2.0169e-63
2.16136e-63
2.30973e-63
2.46081e-63
2.61317e-63
2.76512e-63
2.91472e-63
3.05973e-63
3.19767e-63
3.32577e-63
3.44103e-63
3.54022e-63
3.61994e-63
3.67666e-63
3.7068e-63
5.94132e-63
5.89297e-63
5.80194e-63
5.67398e-63
5.51474e-63
5.32967e-63
5.12392e-63
4.90232e-63
4.66927e-63
4.42879e-63
4.18442e-63
3.93929e-63
3.6961e-63
3.45714e-63
3.2243e-63
2.99915e-63
2.7829e-63
2.57648e-63
2.38056e-63
2.1956e-63
2.02183e-63
1.85934e-63
1.70808e-63
1.56787e-63
1.43846e-63
1.31953e-63
1.21069e-63
1.11153e-63
1.02164e-63
9.40562e-64
8.6787e-64
8.03141e-64
7.45968e-64
6.95974e-64
6.52808e-64
6.16153e-64
5.85728e-64
5.61293e-64
5.42644e-64
5.29621e-64
5.22106e-64
5.2002e-64
5.2333e-64
5.32041e-64
5.46198e-64
5.65888e-64
5.91231e-64
6.22386e-64
6.59541e-64
7.02915e-64
7.52749e-64
8.09306e-64
8.72862e-64
9.437e-64
1.0221e-63
1.10833e-63
1.20265e-63
1.30527e-63
1.41635e-63
1.53599e-63
1.66423e-63
1.80097e-63
1.94601e-63
2.09902e-63
2.25947e-63
2.42666e-63
2.59966e-63
2.77732e-63
2.95821e-63
3.1406e-63
3.32249e-63
3.50154e-63
3.67509e-63
3.84015e-63
3.99343e-63
4.13133e-63
4.25e-63
4.34537e-63
4.41322e-63
4.44927e-63
7.12888e-63
7.07102e-63
6.96209e-63
6.80896e-63
6.61838e-63
6.39687e-63
6.15061e-63
5.88535e-63
5.60638e-63
5.31847e-63
5.02589e-63
4.73238e-63
4.44116e-63
4.15496e-63
3.87607e-63
3.60635e-63
3.34725e-63
3.0999e-63
2.86509e-63
2.64338e-63
2.43504e-63
2.24019e-63
2.05877e-63
1.89057e-63
1.73529e-63
1.59255e-63
1.46189e-63
1.34283e-63
1.23486e-63
1.13746e-63
1.05011e-63
9.723e-64
9.0356e-64
8.43433e-64
7.91503e-64
7.47391e-64
7.10764e-64
6.81333e-64
6.58857e-64
6.43144e-64
6.34052e-64
6.31489e-64
6.35412e-64
6.45827e-64
6.62789e-64
6.86399e-64
7.16801e-64
7.54182e-64
7.98765e-64
8.50811e-64
9.10605e-64
9.78461e-64
1.05471e-63
1.13967e-63
1.2337e-63
1.33711e-63
1.45018e-63
1.57319e-63
1.70632e-63
1.8497e-63
2.00334e-63
2.16715e-63
2.34089e-63
2.52413e-63
2.71626e-63
2.91644e-63
3.12356e-63
3.33622e-63
3.55273e-63
3.77102e-63
3.98868e-63
4.20293e-63
4.41058e-63
4.60807e-63
4.79144e-63
4.95642e-63
5.09837e-63
5.21245e-63
5.29361e-63
5.33673e-63
8.54909e-63
8.47985e-63
8.34951e-63
8.16626e-63
7.9382e-63
7.67312e-63
7.37839e-63
7.06092e-63
6.72702e-63
6.38241e-63
6.03217e-63
5.6808e-63
5.33213e-63
4.98946e-63
4.6555e-63
4.33249e-63
4.02217e-63
3.72588e-63
3.44458e-63
3.17893e-63
2.92927e-63
2.69575e-63
2.47827e-63
2.27662e-63
2.09042e-63
1.91922e-63
1.76249e-63
1.61964e-63
1.49007e-63
1.37316e-63
1.26829e-63
1.17486e-63
1.09229e-63
1.02006e-63
9.57655e-64
9.04633e-64
8.60592e-64
8.2519e-64
7.98137e-64
7.79206e-64
7.68226e-64
7.65087e-64
7.69737e-64
7.82183e-64
8.0249e-64
8.30777e-64
8.67215e-64
9.12026e-64
9.65476e-64
1.02787e-63
1.09956e-63
1.18091e-63
1.2723e-63
1.37415e-63
1.48683e-63
1.61075e-63
1.74624e-63
1.8936e-63
2.05308e-63
2.2248e-63
2.4088e-63
2.60496e-63
2.81297e-63
3.03234e-63
3.26234e-63
3.50194e-63
3.74982e-63
4.00432e-63
4.2634e-63
4.52459e-63
4.78502e-63
5.04135e-63
5.28977e-63
5.52602e-63
5.74537e-63
5.94271e-63
6.1125e-63
6.24895e-63
6.34602e-63
6.3976e-63
1.02477e-62
1.01648e-62
1.00089e-62
9.7896e-63
9.5167e-63
9.19949e-63
8.8468e-63
8.46688e-63
8.06727e-63
7.65483e-63
7.23565e-63
6.81507e-63
6.39771e-63
5.98749e-63
5.58768e-63
5.20094e-63
4.82937e-63
4.47456e-63
4.13768e-63
3.81949e-63
3.52044e-63
3.24066e-63
2.98009e-63
2.73844e-63
2.51528e-63
2.31007e-63
2.12216e-63
1.95088e-63
1.7955e-63
1.65526e-63
1.52945e-63
1.41735e-63
1.31826e-63
1.23156e-63
1.15664e-63
1.09296e-63
1.04006e-63
9.97517e-64
9.64992e-64
9.42211e-64
9.2897e-64
9.25137e-64
9.3065e-64
9.45517e-64
9.69814e-64
1.00368e-63
1.04733e-63
1.10101e-63
1.16505e-63
1.23981e-63
1.3257e-63
1.42315e-63
1.53265e-63
1.65465e-63
1.78963e-63
1.93804e-63
2.1003e-63
2.27677e-63
2.46772e-63
2.67332e-63
2.8936e-63
3.1284e-63
3.37738e-63
3.63994e-63
3.91518e-63
4.2019e-63
4.49851e-63
4.80302e-63
5.11299e-63
5.42547e-63
5.73703e-63
6.04365e-63
6.34081e-63
6.6234e-63
6.88577e-63
7.1218e-63
7.32488e-63
7.48807e-63
7.60417e-63
7.66584e-63
1.22793e-62
1.21802e-62
1.19936e-62
1.17312e-62
1.14047e-62
1.10251e-62
1.06031e-62
1.01485e-62
9.67029e-63
9.17672e-63
8.67506e-63
8.1717e-63
7.67218e-63
7.18118e-63
6.70262e-63
6.23966e-63
5.79483e-63
5.37004e-63
4.96669e-63
4.58568e-63
4.22755e-63
3.89249e-63
3.58038e-63
3.29091e-63
3.02356e-63
2.77767e-63
2.55251e-63
2.34723e-63
2.16098e-63
1.99287e-63
1.84203e-63
1.7076e-63
1.58876e-63
1.48476e-63
1.39487e-63
1.31846e-63
1.25496e-63
1.20388e-63
1.16481e-63
1.13742e-63
1.12148e-63
1.11681e-63
1.12335e-63
1.1411e-63
1.17016e-63
1.21069e-63
1.26294e-63
1.32721e-63
1.4039e-63
1.49342e-63
1.59628e-63
1.71299e-63
1.8441e-63
1.99018e-63
2.1518e-63
2.32948e-63
2.52374e-63
2.73499e-63
2.96356e-63
3.20964e-63
3.47327e-63
3.75427e-63
4.05221e-63
4.36638e-63
4.69571e-63
5.03876e-63
5.39362e-63
5.75791e-63
6.12871e-63
6.50251e-63
6.87518e-63
7.24195e-63
7.59738e-63
7.93536e-63
8.24917e-63
8.53145e-63
8.77434e-63
8.96951e-63
9.10835e-63
9.18211e-63
1.47094e-62
1.45908e-62
1.43676e-62
1.40537e-62
1.3663e-62
1.32088e-62
1.27039e-62
1.21599e-62
1.15877e-62
1.09971e-62
1.03968e-62
9.79439e-63
9.19659e-63
8.60897e-63
8.0362e-63
7.48209e-63
6.94965e-63
6.44117e-63
5.9583e-63
5.50217e-63
5.0734e-63
4.6722e-63
4.29847e-63
3.95181e-63
3.63162e-63
3.33711e-63
3.06738e-63
2.82146e-63
2.5983e-63
2.39686e-63
2.21609e-63
2.05496e-63
1.91251e-63
1.78782e-63
1.68004e-63
1.5884e-63
1.51223e-63
1.45095e-63
1.40405e-63
1.37115e-63
1.35196e-63
1.34628e-63
1.35404e-63
1.37524e-63
1.40998e-63
1.45847e-63
1.52099e-63
1.59792e-63
1.68971e-63
1.79688e-63
1.92001e-63
2.05971e-63
2.21666e-63
2.39152e-63
2.58497e-63
2.79764e-63
3.03013e-63
3.28295e-63
3.55647e-63
3.85095e-63
4.1664e-63
4.50261e-63
4.85909e-63
5.23495e-63
5.62894e-63
6.03932e-63
6.46382e-63
6.89958e-63
7.34312e-63
7.79022e-63
8.23596e-63
8.67463e-63
9.09972e-63
9.50395e-63
9.87926e-63
1.02168e-62
1.05073e-62
1.07407e-62
1.09068e-62
1.0995e-62
1.76163e-62
1.74744e-62
1.72073e-62
1.68317e-62
1.63643e-62
1.58209e-62
1.52167e-62
1.45658e-62
1.38812e-62
1.31745e-62
1.24562e-62
1.17354e-62
1.102e-62
1.03168e-62
9.63138e-63
8.96824e-63
8.331e-63
7.72241e-63
7.14446e-63
6.59848e-63
6.08521e-63
5.60492e-63
5.15749e-63
4.74244e-63
4.35905e-63
4.00638e-63
3.68337e-63
3.38884e-63
3.12155e-63
2.88025e-63
2.66369e-63
2.47065e-63
2.29996e-63
2.15053e-63
2.02135e-63
1.9115e-63
1.82018e-63
1.74668e-63
1.69041e-63
1.65092e-63
1.62784e-63
1.62096e-63
1.63017e-63
1.65547e-63
1.697e-63
1.75499e-63
1.82979e-63
1.92184e-63
2.03168e-63
2.15993e-63
2.30728e-63
2.47447e-63
2.66229e-63
2.87155e-63
3.10304e-63
3.35752e-63
3.63571e-63
3.93821e-63
4.26548e-63
4.6178e-63
4.9952e-63
5.39742e-63
5.82386e-63
6.27349e-63
6.74478e-63
7.23566e-63
7.74341e-63
8.26462e-63
8.79511e-63
9.32986e-63
9.86296e-63
1.03876e-62
1.0896e-62
1.13794e-62
1.18283e-62
1.2232e-62
1.25793e-62
1.28585e-62
1.3057e-62
1.31625e-62
2.10935e-62
2.09237e-62
2.06042e-62
2.01549e-62
1.95956e-62
1.89455e-62
1.82226e-62
1.74439e-62
1.66247e-62
1.57791e-62
1.49196e-62
1.40572e-62
1.32012e-62
1.23598e-62
1.15395e-62
1.0746e-62
9.98337e-63
9.25504e-63
8.56336e-63
7.9099e-63
7.29557e-63
6.72069e-63
6.1851e-63
5.68826e-63
5.22928e-63
4.80706e-63
4.42032e-63
4.06766e-63
3.74759e-63
3.45862e-63
3.19925e-63
2.96804e-63
2.76358e-63
2.58456e-63
2.42979e-63
2.29816e-63
2.18872e-63
2.10061e-63
2.03314e-63
1.98575e-63
1.95802e-63
1.94969e-63
1.96062e-63
1.99083e-63
2.04046e-63
2.10981e-63
2.19927e-63
2.30939e-63
2.4408e-63
2.59424e-63
2.77053e-63
2.97057e-63
3.1953e-63
3.44566e-63
3.72262e-63
4.02709e-63
4.35991e-63
4.7218e-63
5.11331e-63
5.53478e-63
5.98623e-63
6.46737e-63
6.97746e-63
7.51527e-63
8.07898e-63
8.6661e-63
9.27339e-63
9.89676e-63
1.05312e-62
1.11708e-62
1.18083e-62
1.24357e-62
1.30437e-62
1.36219e-62
1.41586e-62
1.46414e-62
1.50568e-62
1.53906e-62
1.5628e-62
1.57542e-62
2.52531e-62
2.505e-62
2.46677e-62
2.41301e-62
2.34611e-62
2.26833e-62
2.18184e-62
2.08867e-62
1.99066e-62
1.88949e-62
1.78665e-62
1.68346e-62
1.58104e-62
1.48036e-62
1.38221e-62
1.28725e-62
1.196e-62
1.10884e-62
1.02607e-62
9.47867e-63
8.74346e-63
8.05543e-63
7.41441e-63
6.81973e-63
6.27034e-63
5.76494e-63
5.30197e-63
4.87978e-63
4.49658e-63
4.1506e-63
3.84004e-63
3.56316e-63
3.31831e-63
3.10391e-63
2.91853e-63
2.76085e-63
2.62972e-63
2.52414e-63
2.44326e-63
2.38643e-63
2.35313e-63
2.34305e-63
2.35604e-63
2.3921e-63
2.45141e-63
2.53432e-63
2.64131e-63
2.77301e-63
2.9302e-63
3.11375e-63
3.32464e-63
3.56395e-63
3.83278e-63
4.13228e-63
4.4636e-63
4.82782e-63
5.22595e-63
5.65884e-63
6.12715e-63
6.63128e-63
7.17127e-63
7.74676e-63
8.35686e-63
9.0001e-63
9.6743e-63
1.03765e-62
1.11028e-62
1.18483e-62
1.26071e-62
1.33719e-62
1.41344e-62
1.48847e-62
1.56118e-62
1.63032e-62
1.6945e-62
1.75224e-62
1.80191e-62
1.84183e-62
1.87022e-62
1.88531e-62
3.02291e-62
2.99861e-62
2.95287e-62
2.88856e-62
2.80851e-62
2.71546e-62
2.61198e-62
2.50051e-62
2.38325e-62
2.26221e-62
2.13917e-62
2.0157e-62
1.89316e-62
1.77269e-62
1.65526e-62
1.54164e-62
1.43245e-62
1.32816e-62
1.22911e-62
1.13553e-62
1.04755e-62
9.65215e-63
8.885e-63
8.17329e-63
7.51577e-63
6.91086e-63
6.35672e-63
5.85136e-63
5.39266e-63
4.97848e-63
4.60669e-63
4.2752e-63
3.98203e-63
3.72531e-63
3.50331e-63
3.31447e-63
3.15741e-63
3.03091e-63
2.934e-63
2.86585e-63
2.82589e-63
2.81371e-63
2.82914e-63
2.87218e-63
2.94306e-63
3.04217e-63
3.1701e-63
3.3276e-63
3.5156e-63
3.73514e-63
3.98739e-63
4.27363e-63
4.59519e-63
4.95344e-63
5.34974e-63
5.78539e-63
6.26159e-63
6.77936e-63
7.3395e-63
7.94246e-63
8.58831e-63
9.27659e-63
1.00063e-62
1.07756e-62
1.15819e-62
1.24217e-62
1.32902e-62
1.41818e-62
1.50892e-62
1.60039e-62
1.69157e-62
1.7813e-62
1.86825e-62
1.95092e-62
2.02768e-62
2.09672e-62
2.15612e-62
2.20385e-62
2.2378e-62
2.25584e-62
3.61817e-62
3.5891e-62
3.53438e-62
3.45744e-62
3.36167e-62
3.25035e-62
3.12655e-62
2.99319e-62
2.8529e-62
2.70808e-62
2.56087e-62
2.41315e-62
2.26654e-62
2.12241e-62
1.9819e-62
1.84596e-62
1.71531e-62
1.59052e-62
1.47201e-62
1.36003e-62
1.25475e-62
1.15623e-62
1.06443e-62
9.79255e-63
9.00567e-63
8.28173e-63
7.61854e-63
7.01369e-63
6.46468e-63
5.96892e-63
5.52389e-63
5.12708e-63
4.77612e-63
4.46877e-63
4.20297e-63
3.97685e-63
3.78875e-63
3.63725e-63
3.52114e-63
3.43946e-63
3.3915e-63
3.3768e-63
3.39514e-63
3.44652e-63
3.53121e-63
3.64968e-63
3.80264e-63
3.99098e-63
4.21581e-63
4.47836e-63
4.78006e-63
5.1224e-63
5.507e-63
5.93547e-63
6.40945e-63
6.9305e-63
7.50005e-63
8.11931e-63
8.78923e-63
9.51035e-63
1.02828e-62
1.11059e-62
1.19786e-62
1.28986e-62
1.38628e-62
1.48671e-62
1.59059e-62
1.69721e-62
1.80572e-62
1.9151e-62
2.02414e-62
2.13144e-62
2.23541e-62
2.33428e-62
2.42606e-62
2.50862e-62
2.57966e-62
2.63673e-62
2.67733e-62
2.6989e-62
4.33028e-62
4.2955e-62
4.23003e-62
4.13799e-62
4.02341e-62
3.89022e-62
3.74212e-62
3.58257e-62
3.41473e-62
3.24147e-62
3.06535e-62
2.88862e-62
2.71321e-62
2.54076e-62
2.37265e-62
2.21e-62
2.05369e-62
1.90438e-62
1.76258e-62
1.6286e-62
1.50262e-62
1.38473e-62
1.27488e-62
1.17297e-62
1.0788e-62
9.92173e-63
9.12807e-63
8.40423e-63
7.74717e-63
7.15384e-63
6.62119e-63
6.14623e-63
5.72614e-63
5.35823e-63
5.04003e-63
4.76931e-63
4.54409e-63
4.36266e-63
4.22358e-63
4.1257e-63
4.06817e-63
4.05044e-63
4.07223e-63
4.13358e-63
4.23477e-63
4.37638e-63
4.55925e-63
4.78445e-63
5.05329e-63
5.36727e-63
5.72807e-63
6.13749e-63
6.59744e-63
7.10988e-63
7.67674e-63
8.29989e-63
8.98103e-63
9.72163e-63
1.05228e-62
1.13852e-62
1.23089e-62
1.32933e-62
1.43369e-62
1.54372e-62
1.65903e-62
1.77913e-62
1.90335e-62
2.03085e-62
2.16061e-62
2.29141e-62
2.4218e-62
2.55011e-62
2.67444e-62
2.79267e-62
2.90243e-62
3.00115e-62
3.08609e-62
3.15434e-62
3.20289e-62
3.22868e-62
5.18216e-62
5.14056e-62
5.06224e-62
4.95212e-62
4.81505e-62
4.65571e-62
4.47852e-62
4.28764e-62
4.08684e-62
3.87956e-62
3.66885e-62
3.45741e-62
3.24755e-62
3.04123e-62
2.84011e-62
2.6455e-62
2.45848e-62
2.27985e-62
2.11018e-62
1.94988e-62
1.79915e-62
1.65809e-62
1.52665e-62
1.4047e-62
1.29203e-62
1.18837e-62
1.09339e-62
1.00677e-62
9.28145e-63
8.57139e-63
7.93393e-63
7.36549e-63
6.86269e-63
6.42233e-63
6.04145e-63
5.71738e-63
5.44774e-63
5.2305e-63
5.06392e-63
4.94665e-63
4.87766e-63
4.85629e-63
4.8822e-63
4.95543e-63
5.07634e-63
5.2456e-63
5.46422e-63
5.73348e-63
6.05495e-63
6.4304e-63
6.86185e-63
7.35146e-63
7.90151e-63
8.51433e-63
9.19223e-63
9.93745e-63
1.0752e-62
1.16377e-62
1.25958e-62
1.36271e-62
1.47318e-62
1.5909e-62
1.7157e-62
1.84727e-62
1.98517e-62
2.12879e-62
2.27733e-62