/*--------------------------------*- C++ -*----------------------------------*\
  =========                 |
  \\      /  F ield         | OpenFOAM: The Open Source CFD Toolbox
   \\    /   O peration     | Website:  https://openfoam.org
    \\  /    A nd           | Version:  11
     \\/     M anipulation  |
\*---------------------------------------------------------------------------*/
FoamFile
{
    format      ascii;
    class       volScalarField;
    location    "20";
    object      C;
}
// * * * * * * * * * * * * * * * * * * * * * * * * * * * * * * * * * * * * * //

dimensions      [0 0 0 1 0 0 0];

internalField   nonuniform List<scalar> 
427520
(
3.56661e-12
3.55985e-12
3.54825e-12
3.533e-12
3.51489e-12
3.49452e-12
3.47235e-12
3.44876e-12
3.42407e-12
3.39855e-12
3.37245e-12
3.34597e-12
3.31929e-12
3.29259e-12
3.26602e-12
3.2397e-12
3.21376e-12
3.1883e-12
3.16343e-12
3.13922e-12
3.11577e-12
3.09314e-12
3.0714e-12
3.0506e-12
3.03079e-12
3.01203e-12
2.99436e-12
2.97781e-12
2.96242e-12
2.94822e-12
2.93523e-12
2.92347e-12
2.91298e-12
2.90376e-12
2.89583e-12
2.8892e-12
2.88389e-12
2.8799e-12
2.87723e-12
2.8759e-12
2.8759e-12
2.87723e-12
2.8799e-12
2.88389e-12
2.88921e-12
2.89583e-12
2.90376e-12
2.91298e-12
2.92348e-12
2.93523e-12
2.94822e-12
2.96242e-12
2.97781e-12
2.99436e-12
3.01204e-12
3.0308e-12
3.0506e-12
3.0714e-12
3.09314e-12
3.11577e-12
3.13923e-12
3.16343e-12
3.1883e-12
3.21376e-12
3.2397e-12
3.26602e-12
3.2926e-12
3.3193e-12
3.34597e-12
3.37245e-12
3.39856e-12
3.42408e-12
3.44877e-12
3.47236e-12
3.49453e-12
3.5149e-12
3.53301e-12
3.54826e-12
3.55986e-12
3.56662e-12
1.07307e-11
1.07157e-11
1.06885e-11
1.06512e-11
1.06058e-11
1.05535e-11
1.04957e-11
1.04333e-11
1.03674e-11
1.02987e-11
1.02278e-11
1.01555e-11
1.00822e-11
1.00084e-11
9.93474e-12
9.86147e-12
9.78898e-12
9.71762e-12
9.64768e-12
9.57946e-12
9.51318e-12
9.44908e-12
9.38737e-12
9.32822e-12
9.27182e-12
9.2183e-12
9.1678e-12
9.12046e-12
9.07637e-12
9.03565e-12
8.99836e-12
8.9646e-12
8.93443e-12
8.90791e-12
8.88508e-12
8.866e-12
8.85069e-12
8.83919e-12
8.83151e-12
8.82766e-12
8.82766e-12
8.83151e-12
8.83919e-12
8.85069e-12
8.866e-12
8.88508e-12
8.90791e-12
8.93443e-12
8.96461e-12
8.99837e-12
9.03565e-12
9.07638e-12
9.12047e-12
9.16781e-12
9.2183e-12
9.27182e-12
9.32823e-12
9.38737e-12
9.44909e-12
9.51319e-12
9.57946e-12
9.64769e-12
9.71763e-12
9.78899e-12
9.86148e-12
9.93476e-12
1.00085e-11
1.00822e-11
1.01555e-11
1.02278e-11
1.02987e-11
1.03674e-11
1.04334e-11
1.04957e-11
1.05535e-11
1.06058e-11
1.06513e-11
1.06885e-11
1.07157e-11
1.07307e-11
1.79557e-11
1.79347e-11
1.78958e-11
1.78417e-11
1.77747e-11
1.76969e-11
1.76099e-11
1.75154e-11
1.74148e-11
1.73092e-11
1.71999e-11
1.70878e-11
1.69737e-11
1.68586e-11
1.67432e-11
1.6628e-11
1.65139e-11
1.64012e-11
1.62905e-11
1.61824e-11
1.60771e-11
1.59751e-11
1.58768e-11
1.57824e-11
1.56923e-11
1.56067e-11
1.55258e-11
1.54499e-11
1.53792e-11
1.53138e-11
1.52539e-11
1.51996e-11
1.51511e-11
1.51084e-11
1.50716e-11
1.50409e-11
1.50162e-11
1.49977e-11
1.49853e-11
1.49791e-11
1.49791e-11
1.49853e-11
1.49977e-11
1.50162e-11
1.50409e-11
1.50716e-11
1.51084e-11
1.51511e-11
1.51996e-11
1.52539e-11
1.53138e-11
1.53792e-11
1.54499e-11
1.55258e-11
1.56067e-11
1.56923e-11
1.57824e-11
1.58768e-11
1.59751e-11
1.60771e-11
1.61824e-11
1.62906e-11
1.64012e-11
1.65139e-11
1.66281e-11
1.67432e-11
1.68586e-11
1.69738e-11
1.70878e-11
1.71999e-11
1.73093e-11
1.74148e-11
1.75155e-11
1.76099e-11
1.76969e-11
1.77748e-11
1.78418e-11
1.78959e-11
1.79348e-11
1.79558e-11
2.52635e-11
2.52377e-11
2.51896e-11
2.51219e-11
2.50374e-11
2.49384e-11
2.48271e-11
2.47055e-11
2.45753e-11
2.44381e-11
2.42955e-11
2.41486e-11
2.39988e-11
2.38471e-11
2.36945e-11
2.35421e-11
2.33905e-11
2.32406e-11
2.30932e-11
2.29487e-11
2.2808e-11
2.26714e-11
2.25395e-11
2.24128e-11
2.22917e-11
2.21765e-11
2.20676e-11
2.19653e-11
2.18698e-11
2.17815e-11
2.17006e-11
2.16272e-11
2.15615e-11
2.15037e-11
2.1454e-11
2.14123e-11
2.13789e-11
2.13538e-11
2.1337e-11
2.13286e-11
2.13286e-11
2.1337e-11
2.13538e-11
2.13789e-11
2.14123e-11
2.1454e-11
2.15037e-11
2.15615e-11
2.16272e-11
2.17006e-11
2.17815e-11
2.18698e-11
2.19653e-11
2.20676e-11
2.21765e-11
2.22917e-11
2.24128e-11
2.25396e-11
2.26714e-11
2.2808e-11
2.29488e-11
2.30932e-11
2.32406e-11
2.33905e-11
2.35421e-11
2.36946e-11
2.38471e-11
2.39988e-11
2.41486e-11
2.42955e-11
2.44382e-11
2.45753e-11
2.47055e-11
2.48271e-11
2.49384e-11
2.50374e-11
2.51219e-11
2.51896e-11
2.52378e-11
2.52635e-11
3.26712e-11
3.26416e-11
3.25857e-11
3.25067e-11
3.24074e-11
3.22906e-11
3.21586e-11
3.20137e-11
3.1858e-11
3.16934e-11
3.15215e-11
3.13442e-11
3.11627e-11
3.09786e-11
3.07929e-11
3.0607e-11
3.04218e-11
3.02383e-11
3.00575e-11
2.98801e-11
2.9707e-11
2.95388e-11
2.93763e-11
2.92199e-11
2.90702e-11
2.89277e-11
2.87929e-11
2.86661e-11
2.85478e-11
2.84382e-11
2.83377e-11
2.82465e-11
2.81649e-11
2.80931e-11
2.80312e-11
2.79794e-11
2.79378e-11
2.79066e-11
2.78857e-11
2.78752e-11
2.78752e-11
2.78857e-11
2.79066e-11
2.79378e-11
2.79794e-11
2.80312e-11
2.80931e-11
2.81649e-11
2.82466e-11
2.83377e-11
2.84382e-11
2.85478e-11
2.86661e-11
2.87929e-11
2.89277e-11
2.90702e-11
2.92199e-11
2.93763e-11
2.95389e-11
2.9707e-11
2.98802e-11
3.00575e-11
3.02383e-11
3.04218e-11
3.0607e-11
3.07929e-11
3.09786e-11
3.11628e-11
3.13442e-11
3.15216e-11
3.16934e-11
3.1858e-11
3.20137e-11
3.21586e-11
3.22906e-11
3.24075e-11
3.25067e-11
3.25858e-11
3.26417e-11
3.26713e-11
4.01934e-11
4.01604e-11
4.00979e-11
4.00091e-11
3.98971e-11
3.97648e-11
3.96149e-11
3.94497e-11
3.92717e-11
3.90829e-11
3.88853e-11
3.86809e-11
3.84713e-11
3.82581e-11
3.80427e-11
3.78267e-11
3.76111e-11
3.73972e-11
3.71861e-11
3.69787e-11
3.67761e-11
3.6579e-11
3.63882e-11
3.62045e-11
3.60285e-11
3.58608e-11
3.57021e-11
3.55527e-11
3.54131e-11
3.52839e-11
3.51652e-11
3.50575e-11
3.49611e-11
3.48761e-11
3.4803e-11
3.47417e-11
3.46925e-11
3.46555e-11
3.46307e-11
3.46184e-11
3.46184e-11
3.46307e-11
3.46555e-11
3.46925e-11
3.47417e-11
3.4803e-11
3.48762e-11
3.49611e-11
3.50575e-11
3.51652e-11
3.52839e-11
3.54132e-11
3.55527e-11
3.57021e-11
3.58609e-11
3.60285e-11
3.62045e-11
3.63882e-11
3.6579e-11
3.67761e-11
3.69788e-11
3.71861e-11
3.73972e-11
3.76111e-11
3.78267e-11
3.80428e-11
3.82581e-11
3.84713e-11
3.8681e-11
3.88854e-11
3.90829e-11
3.92717e-11
3.94498e-11
3.96149e-11
3.97649e-11
3.98972e-11
4.00092e-11
4.00979e-11
4.01604e-11
4.01934e-11
4.78422e-11
4.78062e-11
4.77379e-11
4.76406e-11
4.75175e-11
4.73716e-11
4.72058e-11
4.70226e-11
4.68248e-11
4.66145e-11
4.6394e-11
4.61653e-11
4.59304e-11
4.5691e-11
4.54489e-11
4.52055e-11
4.49624e-11
4.47208e-11
4.4482e-11
4.42472e-11
4.40175e-11
4.37939e-11
4.35772e-11
4.33683e-11
4.31681e-11
4.29771e-11
4.27962e-11
4.26258e-11
4.24666e-11
4.2319e-11
4.21835e-11
4.20604e-11
4.19501e-11
4.1853e-11
4.17693e-11
4.16992e-11
4.16428e-11
4.16005e-11
4.15722e-11
4.1558e-11
4.1558e-11
4.15722e-11
4.16005e-11
4.16428e-11
4.16992e-11
4.17693e-11
4.1853e-11
4.19502e-11
4.20604e-11
4.21835e-11
4.2319e-11
4.24666e-11
4.26259e-11
4.27962e-11
4.29772e-11
4.31681e-11
4.33683e-11
4.35772e-11
4.37939e-11
4.40176e-11
4.42473e-11
4.44821e-11
4.47208e-11
4.49624e-11
4.52056e-11
4.5449e-11
4.56911e-11
4.59305e-11
4.61654e-11
4.63941e-11
4.66146e-11
4.68248e-11
4.70227e-11
4.72058e-11
4.73717e-11
4.75176e-11
4.76407e-11
4.7738e-11
4.78063e-11
4.78423e-11
5.56286e-11
5.559e-11
5.55165e-11
5.54115e-11
5.52784e-11
5.51203e-11
5.49402e-11
5.4741e-11
5.45253e-11
5.42957e-11
5.40545e-11
5.38039e-11
5.35461e-11
5.3283e-11
5.30164e-11
5.27482e-11
5.24798e-11
5.22129e-11
5.19488e-11
5.16888e-11
5.14342e-11
5.11861e-11
5.09454e-11
5.07133e-11
5.04906e-11
5.02782e-11
5.00767e-11
4.98868e-11
4.97093e-11
4.95446e-11
4.93934e-11
4.9256e-11
4.91329e-11
4.90243e-11
4.89308e-11
4.88524e-11
4.87894e-11
4.8742e-11
4.87104e-11
4.86945e-11
4.86945e-11
4.87104e-11
4.8742e-11
4.87894e-11
4.88524e-11
4.89308e-11
4.90244e-11
4.91329e-11
4.9256e-11
4.93934e-11
4.95447e-11
4.97093e-11
4.98868e-11
5.00767e-11
5.02782e-11
5.04907e-11
5.07134e-11
5.09455e-11
5.11861e-11
5.14342e-11
5.16889e-11
5.19488e-11
5.22129e-11
5.24799e-11
5.27482e-11
5.30165e-11
5.3283e-11
5.35461e-11
5.3804e-11
5.40545e-11
5.42958e-11
5.45254e-11
5.47411e-11
5.49403e-11
5.51204e-11
5.52785e-11
5.54116e-11
5.55166e-11
5.55901e-11
5.56287e-11
6.35623e-11
6.35213e-11
6.3443e-11
6.33311e-11
6.31889e-11
6.30197e-11
6.28267e-11
6.26129e-11
6.2381e-11
6.21337e-11
6.18736e-11
6.1603e-11
6.13242e-11
6.10394e-11
6.07505e-11
6.04594e-11
6.01679e-11
5.98776e-11
5.95902e-11
5.93069e-11
5.90293e-11
5.87585e-11
5.84957e-11
5.82421e-11
5.79985e-11
5.7766e-11
5.75454e-11
5.73374e-11
5.71428e-11
5.69623e-11
5.67963e-11
5.66455e-11
5.65104e-11
5.63912e-11
5.62884e-11
5.62023e-11
5.61331e-11
5.60811e-11
5.60463e-11
5.60288e-11
5.60288e-11
5.60463e-11
5.60811e-11
5.61331e-11
5.62023e-11
5.62884e-11
5.63912e-11
5.65104e-11
5.66456e-11
5.67964e-11
5.69623e-11
5.71428e-11
5.73374e-11
5.75454e-11
5.7766e-11
5.79986e-11
5.82421e-11
5.84958e-11
5.87586e-11
5.90294e-11
5.9307e-11
5.95902e-11
5.98777e-11
6.0168e-11
6.04595e-11
6.07506e-11
6.10395e-11
6.13243e-11
6.16031e-11
6.18736e-11
6.21338e-11
6.23811e-11
6.2613e-11
6.28268e-11
6.30198e-11
6.3189e-11
6.33312e-11
6.34431e-11
6.35214e-11
6.35624e-11
7.16521e-11
7.16089e-11
7.15263e-11
7.14079e-11
7.12574e-11
7.1078e-11
7.08732e-11
7.06458e-11
7.0399e-11
7.01355e-11
6.98579e-11
6.95689e-11
6.92708e-11
6.89659e-11
6.86564e-11
6.83442e-11
6.80312e-11
6.77194e-11
6.74102e-11
6.71054e-11
6.68064e-11
6.65145e-11
6.62311e-11
6.59573e-11
6.56943e-11
6.54431e-11
6.52046e-11
6.49797e-11
6.47692e-11
6.45737e-11
6.4394e-11
6.42307e-11
6.40842e-11
6.39551e-11
6.38437e-11
6.37503e-11
6.36753e-11
6.36188e-11
6.35811e-11
6.35622e-11
6.35622e-11
6.35811e-11
6.36188e-11
6.36753e-11
6.37503e-11
6.38437e-11
6.39551e-11
6.40843e-11
6.42307e-11
6.43941e-11
6.45737e-11
6.47692e-11
6.49797e-11
6.52046e-11
6.54432e-11
6.56944e-11
6.59574e-11
6.62312e-11
6.65146e-11
6.68064e-11
6.71055e-11
6.74103e-11
6.77194e-11
6.80313e-11
6.83442e-11
6.86564e-11
6.8966e-11
6.92709e-11
6.9569e-11
6.9858e-11
7.01356e-11
7.03991e-11
7.06459e-11
7.08733e-11
7.10782e-11
7.12575e-11
7.1408e-11
7.15264e-11
7.1609e-11
7.16523e-11
7.99065e-11
7.98612e-11
7.97744e-11
7.96501e-11
7.94918e-11
7.93029e-11
7.9087e-11
7.88471e-11
7.85864e-11
7.83077e-11
7.8014e-11
7.77078e-11
7.73918e-11
7.70682e-11
7.67394e-11
7.64075e-11
7.60746e-11
7.57426e-11
7.54132e-11
7.50882e-11
7.47692e-11
7.44576e-11
7.41549e-11
7.38623e-11
7.35811e-11
7.33123e-11
7.30571e-11
7.28162e-11
7.25907e-11
7.23813e-11
7.21887e-11
7.20136e-11
7.18565e-11
7.17179e-11
7.15984e-11
7.14982e-11
7.14177e-11
7.13571e-11
7.13166e-11
7.12963e-11
7.12963e-11
7.13166e-11
7.13571e-11
7.14177e-11
7.14982e-11
7.15984e-11
7.1718e-11
7.18565e-11
7.20136e-11
7.21887e-11
7.23813e-11
7.25907e-11
7.28163e-11
7.30571e-11
7.33124e-11
7.35811e-11
7.38624e-11
7.4155e-11
7.44577e-11
7.47692e-11
7.50883e-11
7.54133e-11
7.57426e-11
7.60747e-11
7.64076e-11
7.67395e-11
7.70683e-11
7.73919e-11
7.77079e-11
7.80141e-11
7.83078e-11
7.85865e-11
7.88472e-11
7.90871e-11
7.9303e-11
7.94919e-11
7.96502e-11
7.97746e-11
7.98613e-11
7.99066e-11
8.8333e-11
8.82857e-11
8.81951e-11
8.80651e-11
8.78994e-11
8.77017e-11
8.74753e-11
8.72236e-11
8.69498e-11
8.6657e-11
8.63481e-11
8.60258e-11
8.56929e-11
8.53518e-11
8.50049e-11
8.46546e-11
8.43029e-11
8.39519e-11
8.36035e-11
8.32595e-11
8.29217e-11
8.25916e-11
8.22707e-11
8.19604e-11
8.1662e-11
8.13768e-11
8.11057e-11
8.08498e-11
8.06102e-11
8.03876e-11
8.01828e-11
7.99965e-11
7.98294e-11
7.9682e-11
7.95548e-11
7.94481e-11
7.93624e-11
7.92979e-11
7.92548e-11
7.92332e-11
7.92332e-11
7.92548e-11
7.92979e-11
7.93624e-11
7.94482e-11
7.95548e-11
7.9682e-11
7.98295e-11
7.99966e-11
8.01828e-11
8.03876e-11
8.06102e-11
8.08499e-11
8.11057e-11
8.13768e-11
8.16621e-11
8.19605e-11
8.22708e-11
8.25917e-11
8.29218e-11
8.32596e-11
8.36036e-11
8.3952e-11
8.43029e-11
8.46546e-11
8.5005e-11
8.53519e-11
8.5693e-11
8.60259e-11
8.63482e-11
8.66572e-11
8.695e-11
8.72237e-11
8.74754e-11
8.77018e-11
8.78996e-11
8.80653e-11
8.81953e-11
8.82859e-11
8.83332e-11
9.69391e-11
9.68899e-11
9.67957e-11
9.66603e-11
9.64876e-11
9.62813e-11
9.6045e-11
9.57821e-11
9.5496e-11
9.51897e-11
9.48664e-11
9.45289e-11
9.418e-11
9.38223e-11
9.34583e-11
9.30905e-11
9.2721e-11
9.23521e-11
9.19857e-11
9.16238e-11
9.12682e-11
9.09206e-11
9.05825e-11
9.02554e-11
8.99408e-11
8.96398e-11
8.93538e-11
8.90837e-11
8.88307e-11
8.85955e-11
8.83792e-11
8.81824e-11
8.80058e-11
8.78499e-11
8.77154e-11
8.76026e-11
8.7512e-11
8.74437e-11
8.73981e-11
8.73753e-11
8.73753e-11
8.73981e-11
8.74438e-11
8.7512e-11
8.76027e-11
8.77154e-11
8.78499e-11
8.80058e-11
8.81824e-11
8.83792e-11
8.85956e-11
8.88307e-11
8.90838e-11
8.93538e-11
8.96399e-11
8.99408e-11
9.02555e-11
9.05825e-11
9.09206e-11
9.12683e-11
9.16239e-11
9.19858e-11
9.23522e-11
9.27211e-11
9.30906e-11
9.34584e-11
9.38224e-11
9.41801e-11
9.4529e-11
9.48665e-11
9.51899e-11
9.54961e-11
9.57823e-11
9.60451e-11
9.62814e-11
9.64877e-11
9.66604e-11
9.67958e-11
9.68901e-11
9.69393e-11
1.05732e-10
1.05681e-10
1.05583e-10
1.05442e-10
1.05263e-10
1.05049e-10
1.04803e-10
1.04529e-10
1.04231e-10
1.03912e-10
1.03575e-10
1.03223e-10
1.02859e-10
1.02485e-10
1.02105e-10
1.0172e-10
1.01334e-10
1.00948e-10
1.00565e-10
1.00186e-10
9.98131e-11
9.94487e-11
9.90942e-11
9.87512e-11
9.8421e-11
9.81052e-11
9.78049e-11
9.75212e-11
9.72554e-11
9.70084e-11
9.6781e-11
9.65741e-11
9.63885e-11
9.62246e-11
9.60831e-11
9.59645e-11
9.58692e-11
9.57974e-11
9.57494e-11
9.57254e-11
9.57254e-11
9.57494e-11
9.57974e-11
9.58692e-11
9.59646e-11
9.60832e-11
9.62246e-11
9.63885e-11
9.65742e-11
9.67811e-11
9.70084e-11
9.72555e-11
9.75213e-11
9.78049e-11
9.81052e-11
9.84211e-11
9.87512e-11
9.90943e-11
9.94488e-11
9.98131e-11
1.00186e-10
1.00565e-10
1.00948e-10
1.01334e-10
1.01721e-10
1.02105e-10
1.02485e-10
1.02859e-10
1.03223e-10
1.03575e-10
1.03912e-10
1.04231e-10
1.04529e-10
1.04803e-10
1.05049e-10
1.05263e-10
1.05443e-10
1.05583e-10
1.05681e-10
1.05732e-10
1.14718e-10
1.14665e-10
1.14564e-10
1.14418e-10
1.14232e-10
1.1401e-10
1.13755e-10
1.13471e-10
1.13162e-10
1.1283e-10
1.1248e-10
1.12114e-10
1.11735e-10
1.11346e-10
1.1095e-10
1.1055e-10
1.10147e-10
1.09745e-10
1.09345e-10
1.0895e-10
1.08561e-10
1.0818e-10
1.0781e-10
1.07452e-10
1.07107e-10
1.06777e-10
1.06463e-10
1.06166e-10
1.05888e-10
1.0563e-10
1.05392e-10
1.05175e-10
1.04981e-10
1.04809e-10
1.04661e-10
1.04537e-10
1.04437e-10
1.04362e-10
1.04312e-10
1.04287e-10
1.04287e-10
1.04312e-10
1.04362e-10
1.04437e-10
1.04537e-10
1.04661e-10
1.04809e-10
1.04981e-10
1.05175e-10
1.05392e-10
1.0563e-10
1.05888e-10
1.06166e-10
1.06463e-10
1.06777e-10
1.07107e-10
1.07452e-10
1.0781e-10
1.0818e-10
1.08561e-10
1.0895e-10
1.09345e-10
1.09745e-10
1.10147e-10
1.1055e-10
1.1095e-10
1.11346e-10
1.11735e-10
1.12114e-10
1.1248e-10
1.1283e-10
1.13162e-10
1.13471e-10
1.13755e-10
1.1401e-10
1.14232e-10
1.14418e-10
1.14564e-10
1.14665e-10
1.14718e-10
1.23904e-10
1.23849e-10
1.23745e-10
1.23594e-10
1.23402e-10
1.23172e-10
1.22908e-10
1.22614e-10
1.22294e-10
1.2195e-10
1.21587e-10
1.21207e-10
1.20814e-10
1.20411e-10
1.2e-10
1.19584e-10
1.19166e-10
1.18748e-10
1.18332e-10
1.17921e-10
1.17516e-10
1.1712e-10
1.16735e-10
1.16362e-10
1.16003e-10
1.15659e-10
1.15331e-10
1.15022e-10
1.14733e-10
1.14463e-10
1.14215e-10
1.13989e-10
1.13786e-10
1.13608e-10
1.13453e-10
1.13323e-10
1.13219e-10
1.13141e-10
1.13088e-10
1.13062e-10
1.13062e-10
1.13088e-10
1.13141e-10
1.13219e-10
1.13323e-10
1.13453e-10
1.13608e-10
1.13787e-10
1.13989e-10
1.14215e-10
1.14463e-10
1.14733e-10
1.15022e-10
1.15332e-10
1.15659e-10
1.16003e-10
1.16362e-10
1.16735e-10
1.1712e-10
1.17516e-10
1.17921e-10
1.18332e-10
1.18748e-10
1.19166e-10
1.19584e-10
1.2e-10
1.20411e-10
1.20815e-10
1.21208e-10
1.21587e-10
1.2195e-10
1.22294e-10
1.22614e-10
1.22908e-10
1.23172e-10
1.23402e-10
1.23594e-10
1.23745e-10
1.2385e-10
1.23904e-10
1.33297e-10
1.3324e-10
1.33132e-10
1.32977e-10
1.32779e-10
1.32541e-10
1.32268e-10
1.31965e-10
1.31633e-10
1.31278e-10
1.30902e-10
1.3051e-10
1.30103e-10
1.29685e-10
1.29259e-10
1.28828e-10
1.28395e-10
1.27961e-10
1.2753e-10
1.27104e-10
1.26684e-10
1.26273e-10
1.25873e-10
1.25486e-10
1.25112e-10
1.24755e-10
1.24415e-10
1.24094e-10
1.23793e-10
1.23513e-10
1.23255e-10
1.2302e-10
1.22809e-10
1.22623e-10
1.22462e-10
1.22328e-10
1.22219e-10
1.22138e-10
1.22083e-10
1.22056e-10
1.22056e-10
1.22083e-10
1.22138e-10
1.22219e-10
1.22328e-10
1.22462e-10
1.22623e-10
1.22809e-10
1.2302e-10
1.23255e-10
1.23513e-10
1.23793e-10
1.24094e-10
1.24415e-10
1.24755e-10
1.25113e-10
1.25486e-10
1.25873e-10
1.26273e-10
1.26684e-10
1.27104e-10
1.2753e-10
1.27961e-10
1.28395e-10
1.28828e-10
1.29259e-10
1.29685e-10
1.30103e-10
1.3051e-10
1.30903e-10
1.31278e-10
1.31633e-10
1.31965e-10
1.32269e-10
1.32541e-10
1.32779e-10
1.32977e-10
1.33133e-10
1.33241e-10
1.33297e-10
1.42902e-10
1.42844e-10
1.42733e-10
1.42573e-10
1.42368e-10
1.42123e-10
1.41842e-10
1.41529e-10
1.41187e-10
1.4082e-10
1.40432e-10
1.40026e-10
1.39606e-10
1.39174e-10
1.38734e-10
1.38288e-10
1.3784e-10
1.37391e-10
1.36945e-10
1.36503e-10
1.36069e-10
1.35644e-10
1.35229e-10
1.34828e-10
1.34441e-10
1.34071e-10
1.33719e-10
1.33386e-10
1.33073e-10
1.32783e-10
1.32515e-10
1.32272e-10
1.32053e-10
1.3186e-10
1.31693e-10
1.31553e-10
1.31441e-10
1.31356e-10
1.313e-10
1.31271e-10
1.31271e-10
1.313e-10
1.31356e-10
1.31441e-10
1.31553e-10
1.31693e-10
1.3186e-10
1.32053e-10
1.32272e-10
1.32515e-10
1.32783e-10
1.33073e-10
1.33386e-10
1.33719e-10
1.34071e-10
1.34441e-10
1.34828e-10
1.35229e-10
1.35644e-10
1.36069e-10
1.36504e-10
1.36945e-10
1.37391e-10
1.3784e-10
1.38288e-10
1.38734e-10
1.39174e-10
1.39606e-10
1.40026e-10
1.40432e-10
1.4082e-10
1.41187e-10
1.41529e-10
1.41842e-10
1.42123e-10
1.42368e-10
1.42573e-10
1.42733e-10
1.42844e-10
1.42902e-10
1.52727e-10
1.52667e-10
1.52553e-10
1.52388e-10
1.52177e-10
1.51925e-10
1.51635e-10
1.51312e-10
1.5096e-10
1.50582e-10
1.50181e-10
1.49763e-10
1.49329e-10
1.48884e-10
1.48429e-10
1.47969e-10
1.47506e-10
1.47043e-10
1.46582e-10
1.46126e-10
1.45677e-10
1.45237e-10
1.44809e-10
1.44393e-10
1.43994e-10
1.43611e-10
1.43246e-10
1.42902e-10
1.42578e-10
1.42278e-10
1.42001e-10
1.41749e-10
1.41522e-10
1.41323e-10
1.4115e-10
1.41005e-10
1.40889e-10
1.40801e-10
1.40742e-10
1.40713e-10
1.40713e-10
1.40742e-10
1.40801e-10
1.40889e-10
1.41005e-10
1.4115e-10
1.41323e-10
1.41523e-10
1.41749e-10
1.42001e-10
1.42278e-10
1.42579e-10
1.42902e-10
1.43246e-10
1.43611e-10
1.43994e-10
1.44394e-10
1.44809e-10
1.45237e-10
1.45677e-10
1.46126e-10
1.46582e-10
1.47043e-10
1.47506e-10
1.47969e-10
1.48429e-10
1.48884e-10
1.49329e-10
1.49763e-10
1.50182e-10
1.50582e-10
1.5096e-10
1.51312e-10
1.51635e-10
1.51925e-10
1.52177e-10
1.52388e-10
1.52553e-10
1.52668e-10
1.52727e-10
1.62777e-10
1.62716e-10
1.62598e-10
1.62429e-10
1.62212e-10
1.61952e-10
1.61654e-10
1.61322e-10
1.60959e-10
1.60569e-10
1.60157e-10
1.59726e-10
1.59279e-10
1.5882e-10
1.58351e-10
1.57877e-10
1.57399e-10
1.56922e-10
1.56446e-10
1.55975e-10
1.55512e-10
1.55058e-10
1.54616e-10
1.54188e-10
1.53775e-10
1.53379e-10
1.53003e-10
1.52647e-10
1.52313e-10
1.52002e-10
1.51716e-10
1.51456e-10
1.51222e-10
1.51015e-10
1.50837e-10
1.50687e-10
1.50567e-10
1.50476e-10
1.50415e-10
1.50385e-10
1.50385e-10
1.50415e-10
1.50476e-10
1.50567e-10
1.50687e-10
1.50837e-10
1.51015e-10
1.51222e-10
1.51456e-10
1.51716e-10
1.52003e-10
1.52313e-10
1.52647e-10
1.53003e-10
1.53379e-10
1.53775e-10
1.54188e-10
1.54616e-10
1.55058e-10
1.55512e-10
1.55976e-10
1.56446e-10
1.56922e-10
1.574e-10
1.57877e-10
1.58352e-10
1.5882e-10
1.59279e-10
1.59726e-10
1.60157e-10
1.60569e-10
1.60959e-10
1.61322e-10
1.61654e-10
1.61953e-10
1.62212e-10
1.62429e-10
1.62599e-10
1.62716e-10
1.62778e-10
1.7306e-10
1.72997e-10
1.72876e-10
1.72701e-10
1.72479e-10
1.72212e-10
1.71905e-10
1.71563e-10
1.7119e-10
1.70789e-10
1.70365e-10
1.69921e-10
1.69461e-10
1.68988e-10
1.68506e-10
1.68017e-10
1.67525e-10
1.67033e-10
1.66543e-10
1.66058e-10
1.65581e-10
1.65113e-10
1.64657e-10
1.64215e-10
1.63789e-10
1.63382e-10
1.62993e-10
1.62626e-10
1.62282e-10
1.61961e-10
1.61666e-10
1.61397e-10
1.61156e-10
1.60943e-10
1.60759e-10
1.60604e-10
1.6048e-10
1.60386e-10
1.60324e-10
1.60292e-10
1.60292e-10
1.60324e-10
1.60386e-10
1.6048e-10
1.60604e-10
1.60759e-10
1.60943e-10
1.61156e-10
1.61397e-10
1.61666e-10
1.61961e-10
1.62282e-10
1.62626e-10
1.62993e-10
1.63382e-10
1.6379e-10
1.64215e-10
1.64657e-10
1.65113e-10
1.65581e-10
1.66058e-10
1.66543e-10
1.67033e-10
1.67526e-10
1.68018e-10
1.68506e-10
1.68988e-10
1.69461e-10
1.69921e-10
1.70365e-10
1.70789e-10
1.7119e-10
1.71563e-10
1.71905e-10
1.72212e-10
1.72479e-10
1.72702e-10
1.72876e-10
1.72997e-10
1.7306e-10
1.8358e-10
1.83516e-10
1.83391e-10
1.83212e-10
1.82983e-10
1.82709e-10
1.82394e-10
1.82042e-10
1.81659e-10
1.81247e-10
1.80811e-10
1.80354e-10
1.79881e-10
1.79395e-10
1.78899e-10
1.78396e-10
1.7789e-10
1.77383e-10
1.76879e-10
1.7638e-10
1.75888e-10
1.75406e-10
1.74937e-10
1.74482e-10
1.74043e-10
1.73623e-10
1.73223e-10
1.72845e-10
1.7249e-10
1.7216e-10
1.71856e-10
1.71579e-10
1.7133e-10
1.7111e-10
1.7092e-10
1.70761e-10
1.70633e-10
1.70536e-10
1.70472e-10
1.7044e-10
1.7044e-10
1.70472e-10
1.70536e-10
1.70633e-10
1.70761e-10
1.7092e-10
1.7111e-10
1.7133e-10
1.71579e-10
1.71856e-10
1.7216e-10
1.7249e-10
1.72845e-10
1.73223e-10
1.73623e-10
1.74043e-10
1.74482e-10
1.74937e-10
1.75406e-10
1.75888e-10
1.7638e-10
1.76879e-10
1.77383e-10
1.7789e-10
1.78396e-10
1.78899e-10
1.79395e-10
1.79881e-10
1.80354e-10
1.80811e-10
1.81247e-10
1.81659e-10
1.82043e-10
1.82394e-10
1.82709e-10
1.82984e-10
1.83213e-10
1.83392e-10
1.83516e-10
1.83581e-10
1.94346e-10
1.94279e-10
1.94152e-10
1.93968e-10
1.93733e-10
1.93451e-10
1.93127e-10
1.92766e-10
1.92372e-10
1.91949e-10
1.91501e-10
1.91032e-10
1.90546e-10
1.90046e-10
1.89536e-10
1.89019e-10
1.88498e-10
1.87977e-10
1.87459e-10
1.86945e-10
1.86439e-10
1.85944e-10
1.85461e-10
1.84993e-10
1.84542e-10
1.84109e-10
1.83697e-10
1.83308e-10
1.82943e-10
1.82603e-10
1.8229e-10
1.82005e-10
1.81748e-10
1.81522e-10
1.81327e-10
1.81163e-10
1.81031e-10
1.80931e-10
1.80865e-10
1.80832e-10
1.80832e-10
1.80865e-10
1.80932e-10
1.81031e-10
1.81163e-10
1.81327e-10
1.81522e-10
1.81748e-10
1.82005e-10
1.8229e-10
1.82603e-10
1.82943e-10
1.83308e-10
1.83698e-10
1.84109e-10
1.84542e-10
1.84993e-10
1.85461e-10
1.85944e-10
1.8644e-10
1.86945e-10
1.87459e-10
1.87978e-10
1.88499e-10
1.89019e-10
1.89536e-10
1.90046e-10
1.90546e-10
1.91032e-10
1.91501e-10
1.91949e-10
1.92372e-10
1.92767e-10
1.93128e-10
1.93451e-10
1.93733e-10
1.93968e-10
1.94152e-10
1.94279e-10
1.94346e-10
2.05362e-10
2.05294e-10
2.05163e-10
2.04974e-10
2.04733e-10
2.04444e-10
2.04112e-10
2.03741e-10
2.03336e-10
2.02902e-10
2.02442e-10
2.0196e-10
2.0146e-10
2.00947e-10
2.00423e-10
1.99892e-10
1.99357e-10
1.98822e-10
1.98289e-10
1.97761e-10
1.97241e-10
1.96732e-10
1.96235e-10
1.95754e-10
1.9529e-10
1.94845e-10
1.94422e-10
1.94022e-10
1.93646e-10
1.93296e-10
1.92974e-10
1.92681e-10
1.92417e-10
1.92184e-10
1.91983e-10
1.91815e-10
1.91679e-10
1.91577e-10
1.91508e-10
1.91474e-10
1.91474e-10
1.91508e-10
1.91577e-10
1.91679e-10
1.91815e-10
1.91983e-10
1.92185e-10
1.92417e-10
1.92681e-10
1.92974e-10
1.93296e-10
1.93646e-10
1.94022e-10
1.94422e-10
1.94845e-10
1.9529e-10
1.95754e-10
1.96235e-10
1.96732e-10
1.97241e-10
1.97761e-10
1.98289e-10
1.98822e-10
1.99357e-10
1.99892e-10
2.00423e-10
2.00947e-10
2.01461e-10
2.0196e-10
2.02442e-10
2.02902e-10
2.03336e-10
2.03741e-10
2.04112e-10
2.04444e-10
2.04733e-10
2.04974e-10
2.05163e-10
2.05294e-10
2.05362e-10
2.16636e-10
2.16566e-10
2.16432e-10
2.16238e-10
2.15991e-10
2.15694e-10
2.15353e-10
2.14973e-10
2.14557e-10
2.14111e-10
2.13639e-10
2.13145e-10
2.12632e-10
2.12105e-10
2.11567e-10
2.11022e-10
2.10472e-10
2.09923e-10
2.09375e-10
2.08833e-10
2.08299e-10
2.07775e-10
2.07265e-10
2.06771e-10
2.06294e-10
2.05837e-10
2.05402e-10
2.04991e-10
2.04605e-10
2.04245e-10
2.03914e-10
2.03613e-10
2.03342e-10
2.03102e-10
2.02896e-10
2.02722e-10
2.02583e-10
2.02478e-10
2.02407e-10
2.02372e-10
2.02372e-10
2.02408e-10
2.02478e-10
2.02583e-10
2.02722e-10
2.02896e-10
2.03102e-10
2.03342e-10
2.03613e-10
2.03914e-10
2.04245e-10
2.04605e-10
2.04991e-10
2.05402e-10
2.05837e-10
2.06294e-10
2.06771e-10
2.07266e-10
2.07776e-10
2.08299e-10
2.08833e-10
2.09375e-10
2.09923e-10
2.10473e-10
2.11022e-10
2.11567e-10
2.12105e-10
2.12632e-10
2.13145e-10
2.13639e-10
2.14112e-10
2.14558e-10
2.14973e-10
2.15353e-10
2.15694e-10
2.15991e-10
2.16238e-10
2.16432e-10
2.16566e-10
2.16636e-10
2.28174e-10
2.28102e-10
2.27964e-10
2.27766e-10
2.27512e-10
2.27208e-10
2.26858e-10
2.26468e-10
2.26042e-10
2.25584e-10
2.251e-10
2.24593e-10
2.24066e-10
2.23525e-10
2.22973e-10
2.22414e-10
2.2185e-10
2.21286e-10
2.20724e-10
2.20167e-10
2.19619e-10
2.19081e-10
2.18557e-10
2.1805e-10
2.1756e-10
2.17091e-10
2.16644e-10
2.16221e-10
2.15825e-10
2.15456e-10
2.15116e-10
2.14806e-10
2.14528e-10
2.14282e-10
2.14069e-10
2.13891e-10
2.13748e-10
2.1364e-10
2.13568e-10
2.13532e-10
2.13532e-10
2.13568e-10
2.1364e-10
2.13748e-10
2.13891e-10
2.14069e-10
2.14282e-10
2.14528e-10
2.14806e-10
2.15116e-10
2.15456e-10
2.15825e-10
2.16222e-10
2.16644e-10
2.17091e-10
2.1756e-10
2.1805e-10
2.18558e-10
2.19081e-10
2.19619e-10
2.20167e-10
2.20724e-10
2.21286e-10
2.2185e-10
2.22414e-10
2.22974e-10
2.23526e-10
2.24067e-10
2.24593e-10
2.251e-10
2.25585e-10
2.26042e-10
2.26468e-10
2.26859e-10
2.27208e-10
2.27512e-10
2.27766e-10
2.27965e-10
2.28102e-10
2.28174e-10
2.39982e-10
2.39909e-10
2.39768e-10
2.39564e-10
2.39304e-10
2.38992e-10
2.38634e-10
2.38234e-10
2.37797e-10
2.37328e-10
2.36831e-10
2.3631e-10
2.3577e-10
2.35215e-10
2.34649e-10
2.34075e-10
2.33497e-10
2.32917e-10
2.32341e-10
2.3177e-10
2.31207e-10
2.30655e-10
2.30118e-10
2.29596e-10
2.29094e-10
2.28612e-10
2.28154e-10
2.2772e-10
2.27313e-10
2.26934e-10
2.26585e-10
2.26266e-10
2.25981e-10
2.25728e-10
2.2551e-10
2.25327e-10
2.2518e-10
2.25069e-10
2.24995e-10
2.24958e-10
2.24958e-10
2.24995e-10
2.25069e-10
2.2518e-10
2.25327e-10
2.2551e-10
2.25728e-10
2.25981e-10
2.26267e-10
2.26585e-10
2.26934e-10
2.27313e-10
2.2772e-10
2.28154e-10
2.28612e-10
2.29094e-10
2.29597e-10
2.30118e-10
2.30656e-10
2.31207e-10
2.3177e-10
2.32341e-10
2.32918e-10
2.33497e-10
2.34075e-10
2.34649e-10
2.35216e-10
2.35771e-10
2.3631e-10
2.36831e-10
2.37328e-10
2.37797e-10
2.38234e-10
2.38634e-10
2.38993e-10
2.39304e-10
2.39565e-10
2.39768e-10
2.39909e-10
2.39983e-10
2.52069e-10
2.51994e-10
2.51849e-10
2.5164e-10
2.51374e-10
2.51054e-10
2.50686e-10
2.50276e-10
2.49828e-10
2.49347e-10
2.48838e-10
2.48304e-10
2.47751e-10
2.47181e-10
2.466e-10
2.46012e-10
2.45418e-10
2.44824e-10
2.44233e-10
2.43647e-10
2.4307e-10
2.42504e-10
2.41952e-10
2.41418e-10
2.40902e-10
2.40408e-10
2.39937e-10
2.39492e-10
2.39074e-10
2.38685e-10
2.38327e-10
2.38001e-10
2.37707e-10
2.37448e-10
2.37224e-10
2.37037e-10
2.36886e-10
2.36772e-10
2.36696e-10
2.36658e-10
2.36658e-10
2.36696e-10
2.36772e-10
2.36886e-10
2.37037e-10
2.37224e-10
2.37448e-10
2.37707e-10
2.38001e-10
2.38327e-10
2.38685e-10
2.39074e-10
2.39492e-10
2.39937e-10
2.40408e-10
2.40902e-10
2.41418e-10
2.41952e-10
2.42504e-10
2.4307e-10
2.43647e-10
2.44233e-10
2.44825e-10
2.45419e-10
2.46012e-10
2.46601e-10
2.47182e-10
2.47751e-10
2.48304e-10
2.48838e-10
2.49347e-10
2.49829e-10
2.50277e-10
2.50687e-10
2.51054e-10
2.51374e-10
2.51641e-10
2.51849e-10
2.51994e-10
2.52069e-10
2.6444e-10
2.64363e-10
2.64214e-10
2.64001e-10
2.63727e-10
2.634e-10
2.63023e-10
2.62602e-10
2.62143e-10
2.6165e-10
2.61128e-10
2.60581e-10
2.60013e-10
2.5943e-10
2.58834e-10
2.58231e-10
2.57622e-10
2.57013e-10
2.56407e-10
2.55806e-10
2.55214e-10
2.54633e-10
2.54068e-10
2.53519e-10
2.5299e-10
2.52484e-10
2.52001e-10
2.51544e-10
2.51116e-10
2.50717e-10
2.50349e-10
2.50014e-10
2.49713e-10
2.49448e-10
2.49218e-10
2.49025e-10
2.4887e-10
2.48754e-10
2.48676e-10
2.48637e-10
2.48637e-10
2.48676e-10
2.48754e-10
2.4887e-10
2.49025e-10
2.49218e-10
2.49448e-10
2.49713e-10
2.50014e-10
2.50349e-10
2.50717e-10
2.51116e-10
2.51544e-10
2.52001e-10
2.52484e-10
2.52991e-10
2.53519e-10
2.54068e-10
2.54634e-10
2.55214e-10
2.55806e-10
2.56407e-10
2.57013e-10
2.57623e-10
2.58231e-10
2.58835e-10
2.5943e-10
2.60014e-10
2.60581e-10
2.61128e-10
2.6165e-10
2.62144e-10
2.62603e-10
2.63023e-10
2.634e-10
2.63728e-10
2.64001e-10
2.64215e-10
2.64363e-10
2.6444e-10
2.77102e-10
2.77023e-10
2.76871e-10
2.76652e-10
2.76372e-10
2.76036e-10
2.7565e-10
2.75219e-10
2.74749e-10
2.74243e-10
2.73708e-10
2.73147e-10
2.72566e-10
2.71968e-10
2.71357e-10
2.70738e-10
2.70115e-10
2.6949e-10
2.68869e-10
2.68253e-10
2.67646e-10
2.67051e-10
2.66471e-10
2.65908e-10
2.65366e-10
2.64846e-10
2.64351e-10
2.63883e-10
2.63443e-10
2.63034e-10
2.62657e-10
2.62314e-10
2.62005e-10
2.61733e-10
2.61497e-10
2.613e-10
2.61141e-10
2.61021e-10
2.60941e-10
2.60901e-10
2.60901e-10
2.60941e-10
2.61021e-10
2.61141e-10
2.613e-10
2.61497e-10
2.61733e-10
2.62005e-10
2.62314e-10
2.62657e-10
2.63034e-10
2.63444e-10
2.63883e-10
2.64351e-10
2.64846e-10
2.65366e-10
2.65908e-10
2.66471e-10
2.67051e-10
2.67646e-10
2.68253e-10
2.68869e-10
2.69491e-10
2.70115e-10
2.70739e-10
2.71358e-10
2.71968e-10
2.72566e-10
2.73148e-10
2.73708e-10
2.74244e-10
2.74749e-10
2.7522e-10
2.75651e-10
2.76037e-10
2.76372e-10
2.76653e-10
2.76871e-10
2.77023e-10
2.77102e-10
2.90063e-10
2.89982e-10
2.89826e-10
2.89602e-10
2.89315e-10
2.88971e-10
2.88576e-10
2.88134e-10
2.87652e-10
2.87134e-10
2.86586e-10
2.86011e-10
2.85415e-10
2.84802e-10
2.84177e-10
2.83542e-10
2.82903e-10
2.82263e-10
2.81626e-10
2.80994e-10
2.80372e-10
2.79762e-10
2.79168e-10
2.78591e-10
2.78035e-10
2.77503e-10
2.76995e-10
2.76515e-10
2.76064e-10
2.75645e-10
2.75259e-10
2.74906e-10
2.7459e-10
2.74311e-10
2.74069e-10
2.73867e-10
2.73704e-10
2.73581e-10
2.73499e-10
2.73458e-10
2.73458e-10
2.73499e-10
2.73581e-10
2.73704e-10
2.73867e-10
2.74069e-10
2.74311e-10
2.7459e-10
2.74907e-10
2.75259e-10
2.75645e-10
2.76065e-10
2.76515e-10
2.76995e-10
2.77503e-10
2.78036e-10
2.78592e-10
2.79168e-10
2.79763e-10
2.80372e-10
2.80995e-10
2.81626e-10
2.82263e-10
2.82903e-10
2.83543e-10