/*--------------------------------*- C++ -*----------------------------------*\
  =========                 |
  \\      /  F ield         | OpenFOAM: The Open Source CFD Toolbox
   \\    /   O peration     | Website:  https://openfoam.org
    \\  /    A nd           | Version:  11
     \\/     M anipulation  |
\*---------------------------------------------------------------------------*/
FoamFile
{
    format      ascii;
    class       volScalarField;
    location    "100";
    object      C;
}
// * * * * * * * * * * * * * * * * * * * * * * * * * * * * * * * * * * * * * //

dimensions      [0 0 0 1 0 0 0];

internalField   nonuniform List<scalar> 
427520
(
8.61388e-316
1.92539e-315
2.01304e-315
-6.31594e-316
-1.74647e-315
-5.83452e-316
-2.11762e-316
-1.08894e-316
-2.97497e-316
-1.03109e-316
-1.08122e-317
-2.08399e-317
-3.83004e-317
-4.89536e-317
-1.66488e-317
2.24765e-317
5.75305e-318
7.64043e-319
-4.71996e-319
-3.15234e-319
-8.39615e-320
-2.15511e-320
-5.08394e-321
-1.20058e-321
-2.91499e-322
-5.92879e-323
4.94066e-324
0
9.88131e-324
0
0
0
0
0
0
0
0
0
0
0
0
0
0
0
0
4.94066e-324
9.88131e-324
1.08694e-322
2.91499e-322
9.63428e-322
2.78159e-321
6.50684e-321
1.04198e-320
8.33983e-321
4.3379e-321
1.19218e-320
3.25293e-320
9.42183e-320
3.25095e-319
8.7713e-319
-1.32903e-318
-2.54715e-317
-4.79816e-317
5.56931e-317
1.3306e-315
1.41575e-314
1.38386e-313
6.23073e-315
-1.1724e-315
-7.9824e-316
-3.89634e-315
-1.50936e-314
-8.49386e-314
-7.04948e-314
1.09481e-313
8.90512e-314
1.58426e-314
-5.81231e-314
-1.59204e-314
-1.3932e-315
2.80146e-314
9.84936e-314
1.15152e-313
9.1726e-315
-4.14321e-314
-1.67304e-314
-7.33572e-315
-3.85112e-315
-1.37028e-314
-4.74649e-315
-4.34395e-316
-8.36194e-316
-1.57855e-315
-2.12508e-315
-7.94869e-316
9.66931e-316
2.48029e-316
3.43627e-317
-1.94637e-317
-1.32962e-317
-3.52783e-318
-8.99743e-319
-2.12705e-319
-4.88186e-320
-1.05829e-320
-2.24306e-321
-4.34778e-322
-1.03754e-322
-9.88131e-324
-1.97626e-323
-4.94066e-324
0
0
0
0
0
0
0
0
0
0
0
9.88131e-324
-4.94066e-324
1.97626e-323
6.91692e-323
3.85371e-322
1.90709e-321
8.27066e-321
3.07111e-320
9.60464e-320
2.37315e-319
4.08069e-319
3.44052e-319
1.39381e-319
3.78558e-319
1.00785e-318
2.68433e-318
1.01773e-317
4.32744e-317
5.7489e-317
-8.73096e-316
-2.34789e-315
-4.36986e-315
-1.77745e-314
-1.6624e-313
6.71512e-314
-6.00007e-314
-7.88726e-314
-9.0527e-315
-5.11065e-314
6.87622e-314
-8.561e-314
5.15468e-314
-3.69175e-314
-5.55754e-314
-5.49753e-314
-7.13609e-316
-2.3014e-314
9.03193e-314
-3.73598e-313
-9.15611e-314
4.11922e-314
-7.34643e-314
3.94342e-314
-7.83949e-314
-7.01431e-314
-9.95527e-314
2.28867e-315
-3.57015e-314
3.88616e-314
-2.21787e-314
-6.77891e-314
-9.92076e-314
-4.00769e-314
4.43906e-314
1.1303e-314
1.61324e-315
-8.35186e-316
-5.79751e-316
-1.52413e-316
-3.85727e-317
-9.04606e-318
-2.05703e-318
-4.41443e-319
-9.08686e-320
-1.78308e-320
-3.30036e-321
-6.37345e-322
-1.03754e-322
-3.95253e-323
1.97626e-323
-4.94066e-324
0
0
0
0
0
0
0
0
4.94066e-324
2.47033e-323
9.88131e-324
2.2727e-322
1.45749e-321
8.69061e-321
4.51033e-320
2.07967e-319
8.37328e-319
2.86333e-318
7.86403e-318
1.52813e-317
1.37068e-317
3.75627e-318
1.01316e-317
2.64519e-317
4.9082e-317
1.43271e-316
1.47996e-315
9.32028e-315
-1.98209e-314
-6.82426e-314
-2.98667e-314
-2.79515e-313
-3.60656e-313
-1.67741e-313
7.84609e-314
-1.1917e-314
-2.03638e-314
5.41844e-315
-1.13515e-313
8.56631e-314
-4.91756e-314
3.25554e-314
7.0209e-314
8.53594e-314
-6.08912e-314
-1.40016e-313
8.46584e-314
-6.94315e-313
-1.81462e-313
-1.69074e-313
-3.75082e-314
3.79204e-314
-1.02116e-313
8.96266e-314
9.59165e-314
1.43433e-313
3.83575e-314
1.29878e-313
1.4908e-314
1.49749e-313
1.7519e-313
2.31313e-314
-1.97653e-315
-2.40053e-315
-5.40779e-314
-6.99041e-314
-3.39993e-314
-8.4791e-315
-2.04858e-315
-4.63042e-316
-1.01811e-316
-2.12383e-317
-4.26579e-318
-8.18405e-319
-1.49954e-319
-2.62102e-320
-4.40707e-321
-6.42285e-322
-6.91692e-323
-9.88131e-324
1.97626e-323
-9.88131e-324
0
0
0
0
0
0
3.45846e-323
2.47033e-323
4.79244e-322
3.40411e-321
2.37893e-320
1.50705e-319
8.56621e-319
4.35075e-318
1.95333e-317
7.58344e-317
2.42935e-316
5.72624e-316
5.74125e-316
9.08627e-317
2.44436e-316
7.85128e-316
9.74003e-316
-7.28585e-315
-2.37068e-314
-1.03896e-313
-2.24653e-313
-1.77705e-313
-1.47177e-313
-4.74075e-313
-2.1666e-313
-3.29769e-313
-2.55072e-313
-2.50731e-313
-2.78112e-313
-2.66493e-313
-1.42404e-313
7.81534e-314
-5.90724e-314
6.83486e-314
1.72316e-313
1.50839e-313
-2.12496e-314
-4.35893e-314
-2.32726e-313
-2.17568e-312
-6.7726e-313
-4.29977e-313
-3.28154e-313
-3.7594e-313
-2.41297e-314
2.05395e-313
1.05856e-313
1.48201e-314
1.84534e-314
4.27954e-313
1.78835e-313
8.07092e-314
1.0516e-313
2.19582e-313
1.68991e-313
5.29923e-314
1.18787e-313
1.95984e-314
-5.21633e-314
-1.9223e-314
-7.2086e-315
-1.72369e-315
-4.78832e-316
-1.14431e-316
-2.74683e-317
-6.18564e-318
-1.30435e-318
-2.59513e-319
-4.87593e-320
-8.61156e-321
-1.39327e-321
-2.2233e-322
-1.97626e-323
0
-1.4822e-323
0
0
0
0
-4.94066e-324
1.4822e-323
3.16202e-322
3.4634e-321
3.16251e-320
2.54137e-319
1.82118e-318
1.17158e-317
6.79065e-317
3.53794e-316
1.63828e-315
6.54262e-315
2.1244e-314
2.54313e-314
1.99008e-315
3.90221e-315
2.73188e-314
1.20848e-313
-8.85117e-314
8.68026e-314
-1.31555e-315
-2.62003e-313
-4.44358e-314
-4.17133e-314
-4.13433e-313
1.71205e-314
-7.82569e-314
-2.30846e-313
-2.3082e-313
-2.9131e-313
-2.42885e-313
1.31637e-313
1.33038e-313
3.54011e-315
-1.24708e-313
1.45829e-313
1.4337e-313
-3.04835e-314
7.78001e-314
-5.95127e-313
-2.99265e-312
-1.54352e-312
-9.37161e-313
-6.12909e-313
-7.68941e-313
-1.35045e-313
1.75583e-313
1.034e-313
1.11682e-313
-9.30116e-314
2.86721e-313
4.56069e-313
2.64927e-313
2.04118e-313
3.0666e-313
2.56259e-313
1.45148e-313
3.16977e-313
3.23906e-313
1.39368e-313
5.01274e-314
-4.11214e-314
8.11576e-315
1.62477e-315
7.3709e-316
1.56338e-316
3.1114e-317
6.01603e-318
1.05185e-318
1.53363e-319
2.25689e-320
2.92981e-321
2.32211e-322
-1.4822e-323
-3.45846e-323
-1.4822e-323
-4.94066e-324
4.94066e-324
0
4.94066e-324
-1.4822e-323
-1.58101e-322
-7.5592e-322
7.65802e-322
6.55971e-320
9.17233e-319
9.13318e-318
7.5709e-317
5.5204e-316
3.63968e-315
2.20605e-314
1.24295e-313
2.78307e-315
3.58006e-314
-6.95459e-315
-1.15302e-313
-6.53753e-314
1.31753e-315
-1.10156e-313
-8.50576e-314
-1.15339e-313
-1.57389e-313
2.10391e-314
8.75299e-314
-4.13601e-313
-4.8767e-314
-1.63178e-313
-1.49295e-313
-6.07227e-314
7.17244e-314
-1.8052e-314
2.51397e-313
8.03742e-314
-5.32599e-314
-3.18085e-313
2.04694e-313
4.38146e-313
-2.06356e-313
-4.30289e-313
-5.15936e-313
-4.31467e-312
-1.56515e-312
-1.41646e-312
-7.65042e-313
-8.95677e-313
-2.77273e-313
-1.23472e-313
-3.41609e-314
3.13292e-313
-2.07022e-313
1.91951e-313
4.43994e-313
9.92166e-314
3.93615e-314
2.03903e-313
2.33492e-313
1.61543e-313
2.53805e-313
4.31191e-313
1.42042e-313
2.48028e-313
1.02834e-313
-2.92759e-314
-1.14386e-314
1.93621e-314
4.80485e-315
1.12132e-315
2.57841e-316
5.37202e-317
9.729e-318
1.81499e-318
3.19468e-319
5.25538e-320
7.93469e-321
1.06718e-321
1.38338e-322
1.4822e-323
1.97626e-323
-9.88131e-324
-4.94066e-323
-3.21143e-322
-3.74008e-321
-3.49749e-320
-2.87862e-319
-2.12235e-318
-1.42351e-317
-8.79924e-317
-5.06878e-316
-2.74803e-315
-1.41438e-314
-6.96266e-314
-9.96127e-314
-5.19066e-315
8.87185e-314
-3.98816e-314
-4.76405e-314
5.77146e-314
-2.03019e-314
1.3652e-313
1.88435e-314
-6.36952e-314
-6.44745e-314
1.72131e-313
2.02202e-313
6.68866e-314
9.08891e-314
-4.60282e-315
-1.20947e-314
8.15465e-314
2.84278e-314
-2.27617e-313
-4.70719e-315
1.7884e-313
-5.10591e-314
-3.00741e-313
5.89151e-313
6.48033e-313
1.61981e-313
-2.70393e-313
-6.87153e-313
-3.5856e-312
-1.15849e-312
-1.4548e-312
-2.91267e-313
-8.24162e-313
4.9522e-314
-2.60608e-314
7.74611e-315
2.45171e-313
-2.1027e-313
4.00859e-314
4.66613e-313
4.20018e-313
1.46676e-313
-1.00793e-313
1.37902e-313
2.57423e-313
3.22226e-313
5.99078e-313
3.65429e-313
3.68676e-313
3.49299e-313
6.31283e-314
3.25129e-315
3.6168e-314
1.37176e-314
3.46815e-315
1.27489e-315
2.53672e-316
6.05443e-318
1.17495e-318
3.02037e-319
6.49202e-320
1.24258e-320
1.95156e-321
2.2727e-322
-9.38725e-323
3.45846e-323
-9.88131e-324
-1.38338e-322
-1.78358e-321
-2.02863e-320
-1.9436e-319
-1.61659e-318
-1.18506e-317
-7.75044e-317
-4.56166e-316
-2.42839e-315
-1.17053e-314
-5.08613e-314
4.68577e-314
2.75257e-314
2.92696e-314
-6.47633e-314
7.80521e-314
1.10015e-313
8.95956e-314
7.17691e-314
3.22103e-313
1.67604e-313
3.38028e-314
1.68866e-315
3.52414e-314
1.08018e-313
8.80257e-314
-9.18989e-315
9.04279e-314
3.67248e-314
-3.59917e-315
-1.58686e-313
-1.87141e-313
-4.43828e-314
5.26528e-314
-2.94022e-313
-4.40016e-313
1.97926e-313
1.73753e-313
3.06585e-314
-2.70715e-313
6.16653e-313
-2.45661e-312
-1.31557e-312
-1.54163e-312
-2.94237e-313
-9.09773e-313
-1.32373e-313
2.55258e-313
-2.11094e-313
-1.47409e-315
-2.74768e-313
1.98866e-314
2.61756e-313
2.34855e-313
3.46499e-313
-7.55715e-314
1.16087e-313
3.64924e-313
1.16003e-313
7.22139e-313
6.19463e-313
6.33226e-313
4.06336e-313
4.17399e-313
7.51908e-314
-1.31271e-314
8.30255e-314
-8.74908e-315
1.46638e-314
4.12855e-316
-2.53129e-315
-5.47651e-316
-1.05444e-316
-1.89391e-317
-3.14491e-318
-4.79777e-319
-6.67038e-320
-8.55722e-321
-1.11165e-321
-1.77864e-322
-3.90312e-322
-6.4525e-321
-8.21384e-320
-8.78281e-319
-8.13799e-318
-6.67381e-317
-4.92098e-316
-3.30365e-315
-2.03996e-314
-1.1684e-313
6.4317e-314
-1.2371e-313
4.94891e-314
-3.39685e-314
7.08207e-315
1.07166e-313
1.06828e-313
-3.18054e-314
-6.47824e-314
7.74069e-314
5.13595e-314
-1.14685e-313
-4.23876e-314
1.2726e-313
2.20769e-313
8.49178e-315
-4.53499e-314
2.04596e-313
2.12569e-313
-4.77522e-314
-2.4829e-314
-4.28515e-314
-7.34623e-314
-1.19362e-313
-3.27043e-313
-3.96261e-313
5.23089e-313
5.30066e-313
-1.13362e-313
-4.24471e-313
-2.87967e-313
-3.18345e-312
-1.47474e-312
-2.12061e-312
-1.2767e-312
-7.46878e-313
-2.13434e-313
1.81737e-313
2.67719e-313
1.3121e-313
-2.64825e-313
-1.48314e-313
-9.21903e-314
-5.8531e-314
2.89872e-313
3.31196e-313
2.08875e-313
1.40425e-313
2.82088e-313
8.33528e-313
6.76555e-313
5.69168e-313
3.23151e-313
6.20641e-313
3.79076e-313
3.59793e-313
2.67577e-313
1.58948e-313
9.39012e-314
-1.63866e-313
-1.67518e-313
-3.53692e-314
-6.73861e-315
-1.19939e-315
-1.97733e-316
-2.99861e-317
-4.15151e-318
-5.17919e-319
-5.73363e-320
-5.53354e-321
-1.03754e-322
4.39224e-321
4.28009e-320
3.14384e-319
1.65939e-318
3.9143e-318
-3.86312e-317
-6.89202e-316
-6.79104e-315
7.71256e-314
1.08648e-313
-9.63281e-314
5.21666e-314
-1.44257e-315
4.34712e-314
2.31701e-315
2.90055e-314
-4.99271e-314
1.03035e-314
1.11654e-314
-2.92216e-314
-2.54095e-313
1.04077e-313
2.89331e-313
6.13823e-314
-8.354e-315
-1.81968e-313
1.42663e-313
3.56479e-313
1.11871e-313
1.09932e-313
9.38986e-314
1.03713e-313
2.39376e-313
-6.34036e-314
5.31322e-314
6.14993e-313
8.79354e-313
-4.02517e-314
-9.37386e-313
-7.11124e-313
-2.43599e-312
-5.16365e-313
-2.22379e-312
-1.54585e-312
-8.59741e-313
-1.14963e-313
-1.94727e-313
5.43852e-314
2.55454e-313
-4.06739e-315
1.15997e-314
-2.07002e-313
-2.07471e-313
-8.67395e-314
3.49232e-313
3.56354e-313
8.60863e-314
8.69781e-314
3.90942e-313
2.74357e-313
5.58581e-313
6.22313e-313
7.12659e-313
6.11303e-313
5.65822e-313
5.82627e-313
2.30981e-313
-2.87366e-314
-3.88125e-313
-2.34794e-313
-1.69896e-313
-4.03729e-314
-8.38742e-315
-1.53785e-315
-2.52879e-316
-3.77169e-317
-5.03852e-318
-5.92997e-319
-6.02464e-320
-2.12942e-321
4.70202e-320
5.84415e-319
6.05241e-318
5.42016e-317
4.29248e-316
3.05786e-315
1.98588e-314
1.18853e-313
1.53027e-313
2.55556e-314
-5.13971e-314
1.36126e-313
-1.15847e-313
-1.02874e-313
-1.87675e-313
-1.49003e-313
-1.72007e-313
-5.67625e-314
-3.277e-314
1.37708e-313
-2.22479e-313
2.06305e-313
4.3454e-313
2.13637e-314
5.0448e-314
-1.13289e-313
2.11021e-313
1.73044e-313
9.6004e-314
1.06725e-314
-1.83109e-313
1.18833e-313
3.55172e-313
3.393e-313
4.4974e-313
8.6134e-313
7.43747e-313
1.82121e-313
-8.05651e-313
-2.21917e-312
-1.75365e-312
-9.65474e-313
-2.42487e-312
-1.85399e-312
-1.03857e-312
-3.98556e-313
-1.30753e-313
-8.7987e-314
2.06169e-313
-6.35338e-314
-3.79311e-314
-2.17017e-313
-1.48928e-313
-1.43033e-313
1.17332e-313
3.18315e-313
1.11952e-313
2.07017e-314
2.5788e-313
1.91148e-313
5.15881e-313
4.86205e-313
6.97427e-313
7.04915e-313
5.41786e-313
6.64083e-313
4.00899e-313
1.07274e-313
-3.21732e-313
-5.42751e-313
-4.69839e-313
-2.59277e-313
-7.36266e-314
-1.43495e-314
-2.31112e-315
-3.40679e-316
-4.52763e-317
-5.33182e-318
-5.43531e-319
-4.28207e-320
5.85073e-320
7.94275e-319
8.58235e-318
8.01359e-317
6.61728e-316
4.91719e-315
3.33342e-314
2.0846e-313
3.3746e-313
5.96587e-314
1.91215e-313
3.09009e-313
3.87852e-314
6.00941e-314
-1.37273e-313
-3.30363e-313
-2.12669e-313
-2.03181e-313
6.01426e-314
1.11434e-313
-1.52458e-313
-1.61797e-313
3.23111e-313
-8.36956e-314
-9.3133e-314
-9.7244e-315
2.97031e-313
1.16915e-313
8.21685e-314
-3.8223e-314
-4.34143e-313
9.37003e-315
2.19727e-313
3.29979e-313
2.92509e-313
3.29176e-313
7.52426e-313
-1.11297e-314
-2.88023e-313
-3.29049e-312
6.93309e-313
5.08993e-313
-2.21549e-312
-1.76196e-312
-1.25726e-312
-2.66994e-313
-2.78785e-313
-2.81726e-314
6.05104e-314
1.57615e-313
-8.74453e-314
2.95223e-314
1.93083e-313
1.22365e-313
4.19308e-313
6.26318e-313
1.60883e-313
2.02582e-313
2.38168e-313
2.67646e-313
3.26077e-313
2.75543e-313
4.44727e-313
5.25376e-313
5.10023e-313
7.13644e-313
4.39037e-313
3.6213e-313
2.68195e-314
-5.24294e-313
-5.49479e-313
-2.62451e-313
-1.38676e-313
-1.0333e-313
-1.67944e-314
-2.49727e-315
-3.33517e-316
-3.94652e-317
-4.04469e-318
-3.47832e-319
-2.0479e-320
5.24451e-320
7.66736e-319
8.93607e-318
8.91709e-317
7.83002e-316
6.17084e-315
4.43174e-314
2.03318e-313
1.8143e-313
1.90377e-313
1.0619e-313
1.20589e-313
2.24345e-313
2.09864e-315
-4.39913e-313
-3.18967e-313
-1.62826e-313
-5.22851e-314
-1.43412e-313
-2.66503e-313
-3.78372e-313
1.54499e-313
-2.74188e-313
-2.27424e-313
-1.00428e-313
1.77052e-313
5.22924e-314
8.04571e-314
4.35287e-314
3.12801e-317
1.15987e-313
4.3029e-313
4.34129e-313
1.97453e-314
2.57978e-313
8.39517e-313
1.93499e-313
3.10072e-313
-3.21635e-312
2.96747e-312
2.41152e-312
-5.58367e-313
-6.41842e-313
-4.59104e-313
-1.35785e-313
-2.686e-313
-1.38586e-313
1.33148e-313
1.37273e-313
1.34227e-313
2.82185e-313
5.39809e-313
2.39125e-313
5.89725e-313
8.68608e-313
3.00326e-313
1.79326e-313
2.47805e-313
3.48683e-313
3.26723e-313
4.02219e-313
5.44907e-313
5.84765e-313
3.89432e-313
4.21241e-313
4.83276e-313
2.94219e-313
1.63119e-313
-2.7913e-313
-6.97885e-313
-5.77124e-313
-3.94153e-313
-1.07768e-313
-3.06315e-314
-6.40364e-315
-1.01861e-315
-1.37539e-316
-1.56736e-317
-1.47391e-318
-1.61194e-319
-7.31894e-319
-8.14929e-318
-7.93778e-317
-6.8494e-316
-5.32781e-315
-3.78805e-314
-1.06187e-313
1.22111e-313
-3.41015e-314
1.29949e-313
2.52522e-313
1.82879e-313
6.59066e-314
2.10094e-314
-3.14776e-313
-1.54731e-313
-1.69738e-313
-2.20881e-313
-1.46308e-313
-2.34962e-313
-4.84785e-313
8.6316e-314
-1.08653e-313
-2.98057e-314
-2.33015e-313
1.96476e-313
1.63292e-313
1.57445e-313
9.49941e-314
2.44949e-313
-1.19156e-313
5.59693e-313
4.12906e-313
-3.68449e-313
7.96334e-314
6.51268e-313
8.39322e-313
1.23484e-312
-1.43428e-312
1.07009e-312
2.64686e-312
8.46792e-313
2.60646e-313
2.69885e-313
5.40703e-314
-2.01043e-313
-1.3793e-313
4.07258e-313
2.34685e-313
3.237e-313
3.99076e-313
7.25015e-313
3.88451e-313
6.73869e-313
9.64208e-313
4.67999e-313
7.90759e-314
3.2446e-313
4.72856e-313
2.3181e-313
2.83771e-313
2.17482e-313
4.24199e-313
3.10337e-313
3.09921e-313
1.91105e-313
4.17396e-313
1.61944e-313
-1.33684e-313
-7.35943e-313
-5.57127e-313
-4.705e-313
-9.66442e-314
-1.33311e-313
-4.31109e-314
-5.75778e-315
-6.8569e-316
-7.29575e-317
-6.6119e-318
-4.74599e-319
-8.68073e-321
1.92839e-319
1.24523e-318
7.15392e-318
4.6702e-317
4.30014e-316
1.69315e-313
-9.34843e-314
-2.32045e-315
4.17865e-314
2.56771e-313
8.21283e-314
-1.49889e-313
1.26729e-314
-1.19289e-313
-5.57839e-314
-1.27409e-313
-1.18415e-313
-6.25311e-314
-1.72386e-313
-4.3342e-313
1.55433e-314
-1.05829e-313
-8.21705e-314
-1.89162e-313
1.36368e-313
1.39318e-313
-3.47272e-314
1.32672e-313
4.12977e-314
-1.84924e-313
2.63987e-313
5.64498e-313
-8.35245e-314
-1.01225e-314
1.00445e-312
5.55364e-313
2.84909e-312
1.62056e-312
3.07796e-312
3.90669e-312
1.10429e-312
1.03734e-312
2.32532e-313
-7.62508e-314
-4.97957e-313
-7.76556e-314
3.57585e-313
2.12701e-314
4.84878e-313
5.83351e-313
6.34608e-313
2.96804e-313
4.90476e-313
9.21893e-313
7.8901e-313
1.64708e-313
2.71565e-313
2.94398e-313
9.07568e-314
1.87792e-313
4.47782e-313
4.14308e-313
4.63923e-314
2.05868e-313
4.3092e-314
1.19101e-313
2.12263e-313
-1.26284e-313
-7.65231e-313
-7.22233e-313
-7.39575e-313
-3.68835e-313
-5.89366e-314
6.8176e-315
-6.40742e-315
-8.84649e-316
-1.37203e-316
-1.55851e-317
-1.27377e-318
2.96662e-319
3.44499e-318
2.17589e-317
6.63423e-317
-6.11964e-316
-1.39647e-314
-9.78734e-314
4.37398e-314
-2.07927e-314
3.811e-314
2.02626e-313
1.13643e-313
-2.61974e-316
7.70653e-314
-9.16011e-314
-6.13934e-314
-5.31314e-314
8.74307e-314
-1.08159e-313
-1.10149e-313
-4.65703e-313
-3.2708e-314
-1.1105e-313
-2.38981e-314
1.91276e-314
2.34294e-313
1.76631e-313
-9.00017e-314
5.35003e-315
6.63139e-314
-1.53068e-313
3.58968e-313
5.46551e-313
-2.15691e-313
5.88419e-313
1.07792e-312
1.12265e-312
3.29465e-312
2.95111e-312
3.17538e-312
3.17662e-312
2.62463e-312
2.52177e-312
1.49354e-312
-4.22802e-314
-2.84456e-313
1.75551e-313
5.00872e-313
-1.16772e-313
1.5348e-313
3.49825e-313
6.44629e-313
2.87499e-313
4.76848e-313
9.95536e-313
9.60242e-313
3.22279e-313
3.24928e-313
3.98491e-313
1.31339e-313
-3.01174e-314
5.18132e-313
4.74331e-313
1.91993e-313
5.86587e-314
-3.2665e-316
2.4538e-314
9.75845e-314
2.19891e-313
-5.94546e-313
-8.76023e-313
-6.28503e-313
-4.37851e-313
-1.67434e-313
-1.08772e-313
-1.3002e-313
2.63213e-315
1.2155e-316
-5.33903e-318
-1.09778e-318
5.08799e-318
6.62174e-317
7.28311e-316
7.13825e-315
6.33789e-314
-8.25716e-314
-3.26376e-313
1.11569e-313
-9.52547e-314
-1.57727e-313
1.28399e-313
-5.12487e-314
-7.40072e-314
1.87768e-313
-1.15708e-314
-2.17004e-313
-2.25819e-313
-2.44776e-314
-3.8592e-314
-1.00339e-313
-6.26547e-313
-6.2242e-314
-1.88766e-313
-9.84784e-314
2.34156e-314
1.77264e-313
1.19714e-315
-2.22783e-313
1.95455e-314
-1.93596e-313
-5.00553e-313
-3.78783e-314
4.81729e-313
-3.72322e-313
9.05174e-313
2.00193e-312
7.55724e-313
2.20368e-312
2.68712e-312
4.54966e-312
2.79346e-312
3.0433e-312
2.99016e-312
1.59474e-312
-3.1046e-313
-4.58021e-313
-3.51514e-313
6.7484e-314
-1.97603e-313
-3.09866e-314
5.6178e-313
9.01196e-313
4.91351e-313
5.00515e-313
7.38755e-313
9.59694e-313
7.04625e-313
3.18801e-313
3.27084e-313
8.92072e-314
-5.21124e-314
6.48871e-313
3.42758e-313
3.16175e-313
1.98797e-313
-5.46525e-314
-2.52279e-313
-2.24018e-313
7.89917e-314
-3.61781e-313
-8.74064e-313
-6.62314e-313
-3.25256e-313
-2.54349e-313
-1.44107e-313
-3.54277e-314
2.60139e-314
3.37261e-315
2.16744e-316
1.01271e-317
-9.25786e-318
-1.21876e-316
-1.34327e-315
-1.32387e-314
-1.1849e-313
-5.55779e-314
-3.26367e-313
1.57284e-314
-2.50086e-316
3.75729e-314
-4.68929e-314
9.68613e-314
7.73319e-314
2.38336e-313
-2.44116e-314
-2.01189e-313
-3.85736e-313
-1.68639e-313
-4.20896e-314
-2.17536e-313
-4.95018e-313
1.56197e-314
4.62921e-314
6.73086e-314
-1.60086e-313
1.75609e-313
-2.46217e-313
-2.21975e-313
2.92301e-313
-9.98541e-314
-5.89768e-314
3.64056e-313
4.23587e-313
-4.06939e-314
1.13491e-312
1.5627e-312
1.22776e-312
8.20077e-313
1.03591e-312
3.08874e-312
9.99505e-313
1.75196e-312
3.40513e-312
2.58886e-312
3.09139e-313
-4.7243e-313
-1.03285e-312
-3.03986e-314
-3.11639e-315
-1.81101e-315
7.95345e-313
1.2365e-312
8.85156e-313
5.81582e-313
5.57273e-313
6.06348e-313
8.49029e-313
1.98936e-313
8.48631e-316
1.97652e-314
-1.63074e-313
4.79662e-313
3.66456e-313
4.24193e-313
2.11355e-313
-7.82566e-314
-8.51603e-314
-1.58444e-313
2.14528e-313
-1.06889e-313
-7.34951e-313
-5.19637e-313
-2.81785e-313
-4.09415e-313
-1.9186e-313
-6.81118e-314
-1.14515e-314
6.14721e-314
3.89051e-315
2.249e-316
1.544e-317
3.52386e-317
3.78756e-316
3.7177e-315
3.22163e-314
-8.85753e-315
-2.99911e-313
2.41023e-313
2.60293e-313
9.23121e-314
1.45496e-313
1.24203e-313
2.77389e-314
-7.28982e-314
-2.18895e-313
-2.80865e-313
-4.43921e-313
-3.82477e-313
-2.14867e-313
-9.94872e-314
-4.94346e-313
-1.51656e-313
-6.78033e-314
-8.27984e-314
6.43395e-314
3.75572e-313
6.67542e-314
-2.21045e-313
1.3489e-313
-2.15069e-313
-2.57162e-313
5.91539e-313
5.51626e-313
2.09781e-313
1.63831e-312
1.88665e-312
2.08074e-312
2.32832e-312
1.05683e-312
1.40349e-312
8.14749e-313
1.31577e-312
3.21641e-312
2.32401e-312
9.0064e-313
1.78314e-314
-1.02299e-312
-2.98318e-313
-3.80599e-313
-2.17866e-313
6.26747e-313
1.32007e-312
1.11208e-312
2.52961e-313
3.66823e-313
4.60645e-313
1.06903e-312
5.17418e-313
-3.72459e-314
1.05437e-313
-3.37632e-314
4.22188e-313
3.53887e-313
1.97675e-313
2.64179e-313
1.91165e-313
3.56888e-314
6.81082e-314
1.61459e-313
-7.10934e-314
-5.84348e-313
-6.36495e-313
-2.88684e-313
-3.81972e-313
-7.16202e-314
-6.35378e-314
-7.38325e-314
-9.82011e-314
-2.37241e-314
-1.07937e-315
-4.27876e-317
5.63324e-317
6.87799e-316
7.55587e-315
-6.90124e-314
-3.31502e-315
-1.55799e-313
2.08309e-313
2.59931e-313
9.20093e-314
1.71158e-313
5.15508e-314
4.6361e-314
-2.35555e-313
-4.3726e-313
-5.31922e-313
-5.1599e-313
-3.12427e-313
-2.08135e-313
-1.22679e-313
-4.13244e-313
-7.59023e-314
8.72793e-315
6.48998e-314
-4.14794e-314
1.91896e-313
-7.2926e-314
-3.55159e-313
5.67119e-314
-6.96417e-314
8.03268e-314
1.74629e-313
2.3574e-313
5.3148e-314
1.19153e-312
2.05531e-312
1.14377e-312
1.51392e-312
1.11415e-312
7.40765e-313
2.17785e-314
1.63311e-312
1.8684e-312
1.36665e-312
1.08131e-312
1.2454e-313
-1.07204e-312
-4.08471e-313
-3.27568e-313
-2.59263e-313
4.89753e-313
1.08827e-312
1.38668e-312
2.87726e-314
4.3196e-313
4.96566e-313
9.21905e-313
7.97173e-313
-3.24705e-314
-1.90195e-314
1.12158e-314
4.36991e-313
4.4854e-313
2.8547e-313
3.90059e-313
6.32362e-314
-4.3792e-314
3.29992e-313
1.58209e-313
2.42144e-313
-5.1669e-313
-6.53412e-313
-2.99599e-313
-5.83558e-313
-1.0741e-313
-1.29878e-313
-1.87339e-313
-2.00392e-313
3.149e-314
1.61009e-315
5.04375e-317
-1.79485e-317
-1.40727e-315
-2.63069e-314
-1.16909e-314
-1.02917e-313
-3.26859e-313
2.19953e-313
4.51523e-313
1.23199e-313
1.50003e-313
-3.03705e-314
-9.19415e-314
-1.64923e-313
-3.4306e-313
-4.87664e-313
-5.70945e-313
-3.9584e-314
-3.58889e-313
-2.32417e-313
-3.32662e-313
7.31466e-314
1.32926e-313
1.39234e-313
-1.65622e-313
6.09818e-314
-6.87442e-314
-1.0824e-313
1.80178e-314
-8.23974e-314
1.22449e-313
-6.43107e-314
3.70601e-313
1.61404e-314
5.51869e-313
1.08738e-312
3.56666e-313
1.37687e-312
9.71442e-313
-4.1599e-313
7.38376e-314
8.277e-313
1.76059e-312
1.33837e-312
6.33681e-313
-1.69584e-314
-1.29064e-312
-4.67792e-313
4.67972e-314
-3.59765e-313
2.68599e-313
8.0181e-313
1.20086e-312
-5.40745e-314
2.69266e-313
6.23858e-313
1.13333e-312
1.13284e-312
9.08945e-314
-3.77273e-314
-8.20681e-314
3.20357e-313
5.0143e-313
4.62591e-313
2.0638e-313
1.23951e-313
5.23669e-314
3.13115e-313
1.87192e-314
1.95901e-313
-6.09383e-313
-6.03721e-313
-2.17252e-313
-7.26028e-313
-1.47766e-313
5.55896e-314
-2.35754e-313
-3.76633e-313
-5.09133e-314
4.27837e-314
2.71225e-315
5.1917e-315
5.18752e-314
6.82179e-314
3.7529e-314
9.65566e-315
-3.9548e-313
1.4754e-313
5.46126e-313
1.91985e-313
3.43223e-313
7.18802e-314
4.93838e-314
7.6101e-316
-3.63088e-313
-4.92189e-313
-4.05507e-313
-1.81356e-313
-1.09184e-313
-1.07476e-313
-2.52379e-313
-1.52148e-314
2.47811e-313
9.70908e-314
-1.57296e-313
-4.41288e-314
-1.06864e-313
-3.9125e-313
-1.33619e-313
5.0189e-314
-1.61731e-313
-3.65559e-313
2.09154e-313
-3.61626e-313
1.64246e-313
1.95824e-312
1.19863e-312
2.0703e-312
4.06517e-313
-1.33881e-312
-5.54889e-313
1.37251e-312
2.38347e-312
1.64789e-312
5.23727e-313
-6.34479e-314
-1.06703e-312
-8.57151e-313
-2.00218e-313
-4.89787e-313
4.03578e-313
7.97404e-313
1.10413e-312
2.34374e-313
1.85095e-313
8.69735e-313
1.0923e-312
1.38865e-312
2.06214e-313
7.87536e-314
-5.05678e-314
5.23134e-313
5.68415e-313
6.03603e-313
1.44731e-313
1.79917e-313
2.14917e-314
5.12487e-313
8.76253e-314
2.2994e-313
-6.92928e-313
-6.99389e-313
-4.73687e-313
-6.54835e-313
-1.89584e-313
-1.89779e-313
-2.13571e-313
-2.35689e-313
4.21352e-315
-9.33757e-314
-6.76616e-316
4.95054e-314
-9.94423e-315
3.52429e-315
7.97116e-314
-1.27888e-313
-4.34164e-313
7.93583e-314
5.44509e-313
1.95624e-313
5.54394e-313
7.04575e-314
-1.29037e-314
1.7366e-313
-1.22298e-313
-5.09805e-313
-5.05098e-313
-3.01092e-313
-2.26782e-313
-7.47319e-314
-2.09737e-313
-3.3492e-313
1.9146e-313
2.64741e-314
-1.42047e-314
-1.41531e-313
-5.04576e-314
-1.20668e-313
2.17359e-313
1.12781e-313
1.97099e-314
-8.64276e-314
-8.98578e-314
-1.28504e-313
9.43319e-314
1.11151e-312
4.70588e-313
1.8901e-313
-6.62813e-313
-5.10209e-313
-2.07605e-313
1.39359e-312
2.38843e-312
1.41354e-312
4.63786e-313
-1.2427e-313
-4.84272e-313
-1.20782e-312
-3.36107e-313
-2.52974e-313
8.74694e-314
5.20688e-313
9.51994e-313
5.27199e-313
3.06179e-313
1.05336e-312
9.21369e-313
1.25279e-312
2.99504e-313
4.8521e-315
-1.73188e-313
7.9606e-313
6.89665e-313
6.34019e-313
2.23438e-313
1.98704e-313
1.62013e-313
5.42815e-313
2.0126e-313
4.13182e-313
-6.24947e-313
-5.40778e-313
-3.73443e-313
-7.65919e-313
-2.90526e-313
-4.07677e-313
-1.54087e-313
-2.07722e-313
-1.34564e-313
-7.3218e-314
-7.02397e-314
-1.47709e-313
-1.49628e-313
-9.88481e-314
-2.38403e-314
7.33158e-314
-1.61073e-313
1.69547e-313
4.88363e-313
4.24292e-313
5.41368e-313
-4.91703e-314
6.61645e-314
-1.29978e-314
-2.3607e-313
-3.06807e-313
-5.11518e-313
-3.60218e-313
-1.84207e-313
-3.3891e-313
-1.35029e-313
-4.77782e-313
-6.91482e-314
1.15358e-313
-9.71651e-314
-9.90954e-314
-1.4167e-313
-5.26871e-313
-9.35185e-314
-2.6295e-313
-4.96178e-314
1.32817e-313
7.28662e-314
7.90545e-313
9.80505e-313
1.18109e-312
1.05029e-312
-3.67528e-313
-6.94418e-313
-1.45511e-312
-4.07694e-313
1.06084e-312
2.27766e-312
1.96146e-312
9.90262e-313
1.3582e-313
-3.02456e-313
-9.60866e-313
-3.83265e-313
-5.21165e-313
3.24637e-313
4.53991e-313
1.0585e-312
9.14069e-313
4.45635e-313
1.05299e-312
9.67316e-313
1.20515e-312
5.38479e-313
8.13093e-314
-1.31436e-313
5.70815e-313
4.74426e-313
9.00854e-313
1.33231e-313
1.76265e-313
2.84695e-313
6.07996e-313
2.77672e-313
4.91719e-313
-4.58418e-313
-6.01026e-313
-4.49811e-313
-6.96818e-313
-5.17774e-313
-6.47796e-313
-1.42094e-313
-3.15115e-313
-6.36971e-314
1.17647e-314
-5.37295e-314
-2.23373e-314
-1.52866e-313
-5.53877e-314
6.30786e-314
3.06925e-314
-2.46875e-313
2.02231e-313
5.47664e-313
5.34618e-313
5.04249e-313
1.32287e-313
8.51564e-314
-5.63001e-314
-1.81328e-313
-1.63157e-313
-5.12594e-313
-4.23325e-313
-8.34733e-314
-3.04241e-313
-2.06093e-314
-4.95801e-313
4.44239e-314
-5.80659e-314
-1.24991e-313
-1.76186e-313
-2.84593e-313
-5.77605e-313
-2.74165e-313
-3.13648e-313
-2.92985e-313
8.54448e-315
7.05934e-314
4.65427e-313
1.10201e-312
1.8391e-312
2.23146e-312
5.72867e-313
-2.02451e-312
-1.74232e-312
-8.7062e-313
5.64558e-313
1.61051e-312
1.85631e-312
1.53481e-312
6.0202e-313
9.13668e-314
-5.23195e-313
-4.07781e-313
-3.40835e-313
6.33803e-314
5.13445e-313
1.13164e-312
1.1991e-312
4.84209e-313
8.83382e-313
1.2471e-312
1.22877e-312
5.22843e-313
2.56335e-313
-7.43471e-314
2.68404e-313
3.76123e-313
9.31223e-313
5.78148e-314
2.59931e-313
1.57074e-313
7.28617e-313
2.32795e-313
3.01375e-313
-4.60242e-313
-4.92391e-313
-5.54879e-313
-5.65034e-313
-4.23639e-313
-6.52907e-313
-1.69438e-313
-2.92129e-313
-8.87902e-315
9.61979e-314
-3.20866e-314
-8.33804e-314
-1.88982e-313
-1.25741e-313
-8.29797e-314
-7.99156e-314
-2.19261e-313
-1.75863e-315
4.35911e-313
7.2299e-313
6.0611e-313
2.23691e-313
1.71865e-315
1.04131e-313
-3.19851e-313
-1.72662e-313
-4.98263e-313
-4.71501e-313
-1.63798e-313
-3.74979e-313
-1.98555e-313
-6.16319e-313
-1.18835e-313
-9.20232e-314
-1.72849e-313
-1.21783e-313
-2.70164e-313
-2.31018e-313
-4.30282e-313
-6.13009e-313
6.22706e-315
2.3215e-313
6.92407e-313
9.78578e-313
1.52033e-312
2.24428e-312
2.02897e-312
7.78259e-313
-1.81236e-312
-2.55972e-312
-2.04038e-312
5.66241e-314
1.45166e-312
2.57676e-312
1.84476e-312
9.87949e-313
2.09945e-313
5.45292e-314
-2.23846e-313
-2.52695e-313
5.38059e-314
6.97939e-313
1.32148e-312
1.19689e-312
4.27602e-313
7.129e-313
1.14367e-312
1.34025e-312
5.34172e-313
2.05012e-313
3.39494e-313
3.63738e-313
1.76277e-313
8.22143e-313
3.72331e-313
3.16162e-313
2.02954e-313
6.3662e-313
2.50305e-313
4.96533e-313
-5.84095e-313
-6.28621e-313
-6.71282e-313
-7.31299e-313
-3.63567e-313
-4.90842e-313
-1.88797e-313
-3.38079e-313
-2.58749e-313
-8.03518e-314
3.68363e-314
-6.12219e-314
-1.66479e-313
-5.57413e-314
-2.70291e-314
6.13946e-314
-2.85257e-313
-2.5045e-314
4.29441e-313
6.81164e-313
3.30773e-313
7.18727e-314
-1.64015e-314
4.30859e-314
-9.3408e-314
6.18619e-316
-3.85827e-313
-4.04718e-313
-1.0851e-313
-5.93406e-313
-5.1348e-313
-4.74865e-313
-2.16344e-313
2.24698e-313
-6.40507e-314
-4.71641e-314
-6.43317e-313
-4.31893e-313
-6.38523e-313
-7.01495e-313
-5.82815e-313
-9.08495e-315
1.11103e-312
1.35765e-312
1.24241e-312
1.7546e-312
1.63664e-312
6.49799e-313
-2.92377e-312
-5.1113e-313
1.5701e-313
7.04323e-313
1.18005e-312
2.00641e-312
2.20924e-312
1.27879e-312
1.83149e-313
1.50856e-313
-1.02368e-313
-1.05929e-313
-1.25316e-313
9.85888e-313
1.51167e-312
1.37954e-312
6.2745e-313
7.69023e-313
1.09548e-312
1.36446e-312
6.75125e-313
3.25956e-313
3.64372e-313
2.46167e-313
1.07198e-313
6.52458e-313
4.42275e-313
1.41225e-313
2.90129e-313
5.4131e-313
9.98581e-314
4.46962e-313
-6.07838e-313
-8.62952e-313
-5.25126e-313
-6.80902e-313
-3.9259e-313
-4.32244e-313
-7.82893e-314
-1.48062e-313
-1.69737e-313
-1.86645e-314
2.18183e-314
7.97793e-314
-2.50283e-313
-2.08781e-314
7.37523e-315
5.67375e-314
-1.43247e-313
-1.64649e-313
4.06544e-313
4.45022e-313
3.85468e-313
2.24838e-313
-4.1248e-314
2.93646e-314
-1.33761e-313
-1.47985e-314
-1.89759e-313
-1.90318e-313
-2.16742e-313
-5.775e-313
-5.24228e-313
-2.801e-313
-2.59661e-313
1.42859e-313
-1.48321e-313
-8.68652e-314
-7.12069e-313
-4.43763e-313
-8.66984e-313
-7.91708e-313
-1.20544e-312
-5.28137e-313
4.15444e-313