/*--------------------------------*- C++ -*----------------------------------*\
  =========                 |
  \\      /  F ield         | OpenFOAM: The Open Source CFD Toolbox
   \\    /   O peration     | Website:  https://openfoam.org
    \\  /    A nd           | Version:  11
     \\/     M anipulation  |
\*---------------------------------------------------------------------------*/
FoamFile
{
    format      ascii;
    class       volScalarField;
    location    "20";
    object      C;
}
// * * * * * * * * * * * * * * * * * * * * * * * * * * * * * * * * * * * * * //

dimensions      [0 0 0 1 0 0 0];

internalField   nonuniform List<scalar> 
427520
(
4.9281e-68
4.83608e-68
4.68097e-68
4.48205e-68
4.25329e-68
4.00541e-68
3.74683e-68
3.48424e-68
3.22292e-68
2.96703e-68
2.71971e-68
2.4833e-68
2.25944e-68
2.04922e-68
1.85321e-68
1.67162e-68
1.50438e-68
1.35114e-68
1.21139e-68
1.08451e-68
9.69757e-69
8.6637e-69
7.73544e-69
6.90476e-69
6.16377e-69
5.50485e-69
4.92075e-69
4.40468e-69
3.9503e-69
3.55178e-69
3.20381e-69
2.90161e-69
2.64088e-69
2.41784e-69
2.22916e-69
2.072e-69
1.94393e-69
1.84297e-69
1.76752e-69
1.71639e-69
1.68876e-69
1.68417e-69
1.70254e-69
1.74416e-69
1.80964e-69
1.89999e-69
2.01657e-69
2.16114e-69
2.3358e-69
2.54307e-69
2.78587e-69
3.06751e-69
3.39171e-69
3.7626e-69
4.1847e-69
4.66289e-69
5.2024e-69
5.80874e-69
6.48764e-69
7.24494e-69
8.08648e-69
9.01792e-69
1.00445e-68
1.11709e-68
1.24009e-68
1.37368e-68
1.51793e-68
1.67268e-68
1.8375e-68
2.0116e-68
2.19376e-68
2.38227e-68
2.5748e-68
2.7683e-68
2.95886e-68
3.14157e-68
3.3102e-68
3.45686e-68
3.57125e-68
3.63911e-68
1.52069e-67
1.49927e-67
1.46091e-67
1.40943e-67
1.34811e-67
1.27975e-67
1.20672e-67
1.13102e-67
1.05431e-67
9.77957e-68
9.03062e-68
8.30489e-68
7.60894e-68
6.94758e-68
6.32407e-68
5.74039e-68
5.19745e-68
4.69531e-68
4.23332e-68
3.81031e-68
3.42469e-68
3.07463e-68
2.75805e-68
2.47283e-68
2.21675e-68
1.98766e-68
1.78341e-68
1.60197e-68
1.44142e-68
1.29993e-68
1.17585e-68
1.06765e-68
9.73956e-69
8.93525e-69
8.25272e-69
7.68255e-69
7.21668e-69
6.84842e-69
6.5724e-69
6.38454e-69
6.28203e-69
6.26329e-69
6.32793e-69
6.4768e-69
6.71193e-69
7.03656e-69
7.45511e-69
7.97321e-69
8.59772e-69
9.33668e-69
1.01994e-68
1.11962e-68
1.23388e-68
1.36398e-68
1.5113e-68
1.67728e-68
1.86344e-68
2.07137e-68
2.30264e-68
2.5588e-68
2.84134e-68
3.15161e-68
3.49075e-68
3.85961e-68
4.25865e-68
4.68781e-68
5.14643e-68
5.63303e-68
6.1452e-68
6.67941e-68
7.23081e-68
7.79303e-68
8.35797e-68
8.91557e-68
9.45356e-68
9.95721e-68
1.0409e-67
1.07884e-67
1.10712e-67
1.12291e-67
2.63584e-67
2.60392e-67
2.5455e-67
2.46564e-67
2.36893e-67
2.25952e-67
2.14111e-67
2.01688e-67
1.88962e-67
1.76165e-67
1.63492e-67
1.51102e-67
1.39119e-67
1.27639e-67
1.16732e-67
1.06448e-67
9.68134e-68
8.78431e-68
7.95367e-68
7.18841e-68
6.48669e-68
5.84603e-68
5.26353e-68
4.73598e-68
4.26002e-68
3.8322e-68
3.44908e-68
3.10731e-68
2.80366e-68
2.53508e-68
2.29872e-68
2.09194e-68
1.91232e-68
1.7577e-68
1.62616e-68
1.51601e-68
1.4258e-68
1.35432e-68
1.30061e-68
1.26392e-68
1.24372e-68
1.23973e-68
1.25185e-68
1.28023e-68
1.32522e-68
1.38738e-68
1.46748e-68
1.56651e-68
1.68567e-68
1.82635e-68
1.99014e-68
2.17884e-68
2.39441e-68
2.63898e-68
2.91481e-68
3.22429e-68
3.56985e-68
3.95396e-68
4.37904e-68
4.84741e-68
5.36114e-68
5.92201e-68
6.53134e-68
7.18985e-68
7.89751e-68
8.65332e-68
9.45511e-68
1.02993e-67
1.11808e-67
1.20925e-67
1.30251e-67
1.3967e-67
1.49039e-67
1.58185e-67
1.66905e-67
1.74962e-67
1.82086e-67
1.87969e-67
1.92273e-67
1.94625e-67
3.8774e-67
3.83512e-67
3.7569e-67
3.64884e-67
3.51671e-67
3.36586e-67
3.20116e-67
3.02697e-67
2.8471e-67
2.66489e-67
2.48315e-67
2.30422e-67
2.13004e-67
1.9621e-67
1.80156e-67
1.64927e-67
1.50579e-67
1.37145e-67
1.24638e-67
1.13055e-67
1.0238e-67
9.25866e-68
8.36406e-68
7.55021e-68
6.81275e-68
6.14712e-68
5.54868e-68
5.01282e-68
4.53502e-68
4.11098e-68
3.73661e-68
3.4081e-68
3.12197e-68
2.87502e-68
2.66442e-68
2.48766e-68
2.34259e-68
2.22739e-68
2.14061e-68
2.08109e-68
2.04806e-68
2.04103e-68
2.05987e-68
2.10477e-68
2.17623e-68
2.27505e-68
2.40237e-68
2.55962e-68
2.74852e-68
2.9711e-68
3.22965e-68
3.52672e-68
3.86508e-68
4.24771e-68
4.67777e-68
5.15848e-68
5.69314e-68
6.28497e-68
6.93709e-68
7.65233e-68
8.43313e-68
9.28137e-68
1.01982e-67
1.11837e-67
1.2237e-67
1.33555e-67
1.4535e-67
1.57694e-67
1.70501e-67
1.83659e-67
1.97027e-67
2.10433e-67
2.23668e-67
2.36489e-67
2.48611e-67
2.59716e-67
2.69444e-67
2.77401e-67
2.83162e-67
2.86276e-67
5.28433e-67
5.23103e-67
5.13178e-67
4.9938e-67
4.82406e-67
4.62909e-67
4.41494e-67
4.18713e-67
3.95056e-67
3.70958e-67
3.46791e-67
3.22872e-67
2.99466e-67
2.76783e-67
2.54993e-67
2.34221e-67
2.14558e-67
1.96061e-67
1.78763e-67
1.62672e-67
1.47778e-67
1.34058e-67
1.21473e-67
1.09979e-67
9.95241e-68
9.00531e-68
8.1508e-68
7.38306e-68
6.69632e-68
6.08497e-68
5.54367e-68
5.0674e-68
4.65149e-68
4.29168e-68
3.98414e-68
3.72547e-68
3.51274e-68
3.34345e-68
3.21559e-68
3.12758e-68
3.07831e-68
3.06711e-68
3.09377e-68
3.1585e-68
3.26195e-68
3.40521e-68
3.58975e-68
3.81749e-68
4.09071e-68
4.41208e-68
4.7846e-68
5.2116e-68
5.69668e-68
6.24367e-68
6.85655e-68
7.53939e-68
8.29623e-68
9.13099e-68
1.00473e-67
1.10483e-67
1.21367e-67
1.3314e-67
1.45811e-67
1.5937e-67
1.73795e-67
1.89041e-67
2.05042e-67
2.21704e-67
2.38904e-67
2.56485e-67
2.74253e-67
2.91973e-67
3.09372e-67
3.26131e-67
3.41886e-67
3.56232e-67
3.68724e-67
3.78879e-67
3.86185e-67
3.90109e-67
6.89838e-67
6.83283e-67
6.71028e-67
6.53923e-67
6.32793e-67
6.08422e-67
5.81543e-67
5.52829e-67
5.22889e-67
4.92264e-67
4.61425e-67
4.30778e-67
4.00664e-67
3.71365e-67
3.43106e-67
3.16062e-67
2.9036e-67
2.66091e-67
2.43308e-67
2.22036e-67
2.02275e-67
1.84004e-67
1.67188e-67
1.51777e-67
1.37713e-67
1.24931e-67
1.13364e-67
1.02939e-67
9.35878e-68
8.52402e-68
7.78299e-68
7.12937e-68
6.55727e-68
6.06125e-68
5.6364e-68
5.27837e-68
4.98333e-68
4.74808e-68
4.56995e-68
4.4469e-68
4.37743e-68
4.36066e-68
4.39627e-68
4.48448e-68
4.62611e-68
4.8225e-68
5.07552e-68
5.38757e-68
5.7615e-68
6.20067e-68
6.70882e-68
7.29008e-68
7.94888e-68
8.6899e-68
9.51794e-68
1.04379e-67
1.14544e-67
1.25722e-67
1.37951e-67
1.51266e-67
1.65692e-67
1.81242e-67
1.97916e-67
2.15694e-67
2.34534e-67
2.54371e-67
2.75109e-67
2.96619e-67
3.18734e-67
3.41248e-67
3.63909e-67
3.86418e-67
4.08427e-67
4.29537e-67
4.49303e-67
4.67226e-67
4.82769e-67
4.95352e-67
5.04369e-67
5.09192e-67
8.76615e-67
8.68664e-67
8.53761e-67
8.32904e-67
8.07066e-67
7.7718e-67
7.44121e-67
7.087e-67
6.71654e-67
6.33642e-67
5.95246e-67
5.56969e-67
5.1924e-67
4.82414e-67
4.46783e-67
4.12574e-67
3.79961e-67
3.49068e-67
3.19977e-67
2.9273e-67
2.67341e-67
2.43796e-67
2.2206e-67
2.02083e-67
1.83799e-67
1.67136e-67
1.52014e-67
1.38351e-67
1.26064e-67
1.15069e-67
1.05286e-67
9.66375e-68
8.9052e-68
8.24622e-68
7.68073e-68
7.2033e-68
6.80917e-68
6.49428e-68
6.25531e-68
6.08963e-68
5.99535e-68
5.97131e-68
6.01705e-68
6.13283e-68
6.3196e-68
6.57897e-68
6.91322e-68
7.32525e-68
7.81855e-68
8.39715e-68
9.0656e-68
9.82885e-68
1.06922e-67
1.16611e-67
1.27414e-67
1.39386e-67
1.52581e-67
1.6705e-67
1.82837e-67
1.99976e-67
2.18492e-67
2.38392e-67
2.59664e-67
2.82275e-67
3.06164e-67
3.31238e-67
3.57369e-67
3.84387e-67
4.12079e-67
4.40181e-67
4.68379e-67
4.963e-67
5.23518e-67
5.49546e-67
5.73842e-67
5.9581e-67
6.14805e-67
6.30141e-67
6.411e-67
6.46948e-67
1.09408e-66
1.08452e-66
1.06656e-66
1.04138e-66
1.01013e-66
9.73901e-67
9.33746e-67
8.90627e-67
8.45428e-67
7.98944e-67
7.51879e-67
7.04847e-67
6.58373e-67
6.12901e-67
5.68792e-67
5.26336e-67
4.85757e-67
4.4722e-67
4.10836e-67
3.76673e-67
3.44756e-67
3.15083e-67
2.87621e-67
2.62317e-67
2.39101e-67
2.17893e-67
1.98602e-67
1.81132e-67
1.65386e-67
1.51266e-67
1.38676e-67
1.27525e-67
1.17727e-67
1.09199e-67
1.01868e-67
9.56692e-68
9.0543e-68
8.64401e-68
8.33193e-68
8.11483e-68
7.99034e-68
7.95699e-68
8.01417e-68
8.16211e-68
8.40192e-68
8.73551e-68
9.16557e-68
9.69554e-68
1.03296e-67
1.10725e-67
1.19296e-67
1.29067e-67
1.40101e-67
1.52462e-67
1.66216e-67
1.81426e-67
1.98153e-67
2.16454e-67
2.36375e-67
2.57951e-67
2.81202e-67
3.0613e-67
3.32711e-67
3.60894e-67
3.90595e-67
4.2169e-67
4.54016e-67
4.87356e-67
5.21443e-67
5.55952e-67
5.90495e-67
6.24619e-67
6.57807e-67
6.89474e-67
7.1897e-67
7.45582e-67
7.68547e-67
7.87051e-67
8.0025e-67
8.07281e-67
1.34841e-66
1.33697e-66
1.31545e-66
1.28524e-66
1.24769e-66
1.2041e-66
1.15572e-66
1.10367e-66
1.04903e-66
9.92732e-67
9.3563e-67
8.78463e-67
8.21868e-67
7.66383e-67
7.12455e-67
6.60444e-67
6.1063e-67
5.63224e-67
5.18372e-67
4.76169e-67
4.36658e-67
3.99846e-67
3.65705e-67
3.34181e-67
3.05199e-67
2.78669e-67
2.54487e-67
2.32546e-67
2.12732e-67
1.94932e-67
1.79032e-67
1.64925e-67
1.52508e-67
1.41685e-67
1.32367e-67
1.24475e-67
1.17939e-67
1.12698e-67
1.08704e-67
1.05917e-67
1.04307e-67
1.03856e-67
1.04556e-67
1.0641e-67
1.09429e-67
1.13636e-67
1.19063e-67
1.2575e-67
1.33745e-67
1.43104e-67
1.5389e-67
1.66171e-67
1.80019e-67
1.95508e-67
2.12713e-67
2.31705e-67
2.52555e-67
2.75322e-67
3.00055e-67
3.26791e-67
3.55545e-67
3.86308e-67
4.19046e-67
4.53685e-67
4.90116e-67
5.28182e-67
5.67675e-67
6.08327e-67
6.49811e-67
6.91729e-67
7.33612e-67
7.74914e-67
8.15013e-67
8.53211e-67
8.88733e-67
9.20734e-67
9.48308e-67
9.70496e-67
9.86302e-67
9.94711e-67
1.64679e-66
1.63314e-66
1.60746e-66
1.57136e-66
1.52645e-66
1.47426e-66
1.41626e-66
1.3538e-66
1.28814e-66
1.2204e-66
1.15161e-66
1.08263e-66
1.01425e-66
9.47101e-67
8.81738e-67
8.18596e-67
7.58023e-67
7.00281e-67
6.45558e-67
5.93977e-67
5.45602e-67
5.00453e-67
4.58506e-67
4.19707e-67
3.83974e-67
3.51207e-67
3.2129e-67
2.94099e-67
2.69504e-67
2.47373e-67
2.27574e-67
2.09981e-67
1.94473e-67
1.80937e-67
1.69267e-67
1.5937e-67
1.51162e-67
1.44572e-67
1.39538e-67
1.36014e-67
1.33965e-67
1.33368e-67
1.34213e-67
1.36501e-67
1.40247e-67
1.45475e-67
1.52223e-67
1.60538e-67
1.70475e-67
1.82099e-67
1.95484e-67
2.10708e-67
2.27853e-67
2.47004e-67
2.68247e-67
2.91663e-67
3.17329e-67
3.4531e-67
3.7566e-67
4.08412e-67
4.43578e-67
4.81141e-67
5.21046e-67
5.63202e-67
6.07465e-67
6.53641e-67
7.01472e-67
7.50633e-67
8.00725e-67
8.51267e-67
9.01695e-67
9.51358e-67
9.99512e-67
1.04533e-66
1.08788e-66
1.12617e-66
1.15914e-66
1.18563e-66
1.20449e-66
1.21451e-66
1.99768e-66
1.98143e-66
1.95084e-66
1.90783e-66
1.85427e-66
1.79199e-66
1.72271e-66
1.64804e-66
1.56947e-66
1.48834e-66
1.40585e-66
1.32305e-66
1.24088e-66
1.16009e-66
1.08135e-66
1.0052e-66
9.3204e-67
8.6221e-67
7.95941e-67
7.33388e-67
6.7464e-67
6.19731e-67
5.68642e-67
5.21317e-67
4.77669e-67
4.37586e-67
4.00936e-67
3.67579e-67
3.37363e-67
3.10137e-67
2.85748e-67
2.64048e-67
2.44896e-67
2.28158e-67
2.1371e-67
2.01443e-67
1.91256e-67
1.83065e-67
1.76798e-67
1.72398e-67
1.69823e-67
1.69046e-67
1.70053e-67
1.72846e-67
1.7744e-67
1.83865e-67
1.92162e-67
2.02386e-67
2.14601e-67
2.28883e-67
2.45316e-67
2.6399e-67
2.85e-67
3.08443e-67
3.34416e-67
3.63011e-67
3.94312e-67
4.28394e-67
4.65311e-67
5.05097e-67
5.47759e-67
5.93265e-67
6.41546e-67
6.92482e-67
7.45896e-67
8.01547e-67
8.59121e-67
9.18226e-67
9.78379e-67
1.03901e-66
1.09943e-66
1.15888e-66
1.21646e-66
1.2712e-66
1.32199e-66
1.36767e-66
1.40695e-66
1.4385e-66
1.46095e-66
1.47287e-66
2.411e-66
2.3917e-66
2.35534e-66
2.30417e-66
2.24044e-66
2.16627e-66
2.08373e-66
1.9947e-66
1.90096e-66
1.80408e-66
1.70551e-66
1.60649e-66
1.50812e-66
1.41133e-66
1.3169e-66
1.22547e-66
1.13756e-66
1.05355e-66
9.73739e-67
8.98317e-67
8.27402e-67
7.61042e-67
6.99225e-67
6.41894e-67
5.88953e-67
5.40275e-67
4.95715e-67
4.55108e-67
4.18282e-67
3.85061e-67
3.55268e-67
3.2873e-67
3.05282e-67
2.84768e-67
2.67043e-67
2.51976e-67
2.39451e-67
2.29366e-67
2.21637e-67
2.16196e-67
2.12994e-67
2.11996e-67
2.13186e-67
2.16566e-67
2.22152e-67
2.29978e-67
2.40091e-67
2.52554e-67
2.67443e-67
2.84844e-67
3.04854e-67
3.27576e-67
3.53119e-67
3.81596e-67
4.13115e-67
4.47781e-67
4.85689e-67
5.2692e-67
5.71533e-67
6.19561e-67
6.71004e-67
7.25817e-67
7.83911e-67
8.45134e-67
9.0927e-67
9.76026e-67
1.04502e-66
1.11578e-66
1.18774e-66
1.2602e-66
1.33235e-66
1.40329e-66
1.47195e-66
1.53717e-66
1.59765e-66
1.652e-66
1.69872e-66
1.73623e-66
1.7629e-66
1.77705e-66
2.8985e-66
2.87558e-66
2.8324e-66
2.77163e-66
2.69588e-66
2.60771e-66
2.50953e-66
2.40359e-66
2.29197e-66
2.17655e-66
2.05905e-66
1.94093e-66
1.82351e-66
1.70789e-66
1.59501e-66
1.48563e-66
1.38037e-66
1.27969e-66
1.18396e-66
1.09342e-66
1.0082e-66
9.28382e-67
8.53956e-67
7.84861e-67
7.20993e-67
6.6221e-67
6.08344e-67
5.59208e-67
5.14603e-67
4.74324e-67
4.38166e-67
4.05929e-67
3.77418e-67
3.52451e-67
3.30859e-67
3.12487e-67
2.97199e-67
2.84876e-67
2.75417e-67
2.68742e-67
2.64792e-67
2.63526e-67
2.64924e-67
2.68987e-67
2.75733e-67
2.852e-67
2.97444e-67
3.12536e-67
3.30563e-67
3.51626e-67
3.75835e-67
4.03311e-67
4.34178e-67
4.68564e-67
5.06595e-67
5.48389e-67
5.94054e-67
6.43677e-67
6.97325e-67
7.55028e-67
8.16778e-67
8.82519e-67
9.52134e-67
1.02544e-66
1.10217e-66
1.18197e-66
1.26438e-66
1.34885e-66
1.43467e-66
1.52104e-66
1.607e-66
1.69145e-66
1.77315e-66
1.85071e-66
1.92261e-66
1.98719e-66
2.04267e-66
2.0872e-66
2.11884e-66
2.13564e-66
3.47401e-66
3.44683e-66
3.39559e-66
3.32346e-66
3.23354e-66
3.12883e-66
3.01219e-66
2.88629e-66
2.75358e-66
2.6163e-66
2.47647e-66
2.33584e-66
2.19597e-66
2.05817e-66
1.92354e-66
1.79302e-66
1.66732e-66
1.54703e-66
1.43256e-66
1.32421e-66
1.22216e-66
1.1265e-66
1.03723e-66
9.54285e-67
8.77554e-67
8.06874e-67
7.42051e-67
6.82871e-67
6.29103e-67
5.8051e-67
5.36852e-67
4.97897e-67
4.63417e-67
4.33199e-67
4.07045e-67
3.84773e-67
3.66222e-67
3.51253e-67
3.39747e-67
3.3161e-67
3.26771e-67
3.2518e-67
3.26815e-67
3.31674e-67
3.39778e-67
3.51171e-67
3.65915e-67
3.84094e-67
4.05809e-67
4.31175e-67
4.6032e-67
4.93383e-67
5.30508e-67
5.71841e-67
6.17526e-67
6.67699e-67
7.22481e-67
7.81972e-67
8.4624e-67
9.15319e-67
9.89191e-67
1.06778e-66
1.15095e-66
1.23847e-66
1.33001e-66
1.42516e-66
1.52338e-66
1.62397e-66
1.72613e-66
1.82889e-66
1.93111e-66
2.03149e-66
2.12856e-66
2.22068e-66
2.30603e-66
2.38267e-66
2.4485e-66
2.50131e-66
2.53883e-66
2.55874e-66
4.1539e-66
4.12167e-66
4.06091e-66
3.97536e-66
3.86869e-66
3.74444e-66
3.60599e-66
3.45651e-66
3.2989e-66
3.13581e-66
2.96962e-66
2.80243e-66
2.63606e-66
2.47208e-66
2.31182e-66
2.15635e-66
2.00656e-66
1.86313e-66
1.72657e-66
1.59723e-66
1.47534e-66
1.36101e-66
1.25425e-66
1.15499e-66
1.0631e-66
9.78398e-67
9.00662e-67
8.29644e-67
7.65076e-67
7.06681e-67
6.54182e-67
6.07305e-67
5.65785e-67
5.29372e-67
4.97834e-67
4.70958e-67
4.48555e-67
4.30459e-67
4.16533e-67
4.06665e-67
4.00768e-67
3.98787e-67
4.00693e-67
4.06481e-67
4.16177e-67
4.2983e-67
4.47512e-67
4.69321e-67
4.95371e-67
5.25798e-67
5.60749e-67
6.00385e-67
6.44872e-67
6.94379e-67
7.49072e-67
8.09106e-67
8.74619e-67
9.45722e-67
1.02249e-66
1.10496e-66
1.19311e-66
1.28683e-66
1.38596e-66
1.49022e-66
1.59922e-66
1.71246e-66
1.82929e-66
1.94891e-66
2.07033e-66
2.19242e-66
2.31382e-66
2.43299e-66
2.5482e-66
2.65749e-66
2.75873e-66
2.84962e-66
2.92766e-66
2.99026e-66
3.03473e-66
3.05832e-66
4.95751e-66
4.91932e-66
4.8473e-66
4.74588e-66
4.61939e-66
4.47204e-66
4.30782e-66
4.13047e-66
3.94343e-66
3.74984e-66
3.55251e-66
3.35394e-66
3.15628e-66
2.96139e-66
2.77085e-66
2.58595e-66
2.40772e-66
2.23698e-66
2.07435e-66
1.92025e-66
1.77495e-66
1.63859e-66
1.51119e-66
1.39269e-66
1.28292e-66
1.18168e-66
1.08872e-66
1.00373e-66
9.26426e-67
8.56469e-67
7.93539e-67
7.37315e-67
6.87488e-67
6.43764e-67
6.05871e-67
5.73559e-67
5.46605e-67
5.24817e-67
5.08029e-67
4.9611e-67
4.88959e-67
4.86509e-67
4.88724e-67
4.956e-67
5.07164e-67
5.23473e-67
5.44611e-67
5.70689e-67
6.01842e-67
6.38226e-67
6.80012e-67
7.27387e-67
7.80544e-67
8.39678e-67
9.04981e-67
9.76631e-67
1.05479e-66
1.13957e-66
1.23108e-66
1.32933e-66
1.4343e-66
1.54586e-66
1.66381e-66
1.78781e-66
1.9174e-66
2.05198e-66
2.19077e-66
2.33283e-66
2.47699e-66
2.62188e-66
2.76593e-66
2.90729e-66
3.04391e-66
3.17349e-66
3.29351e-66
3.40122e-66
3.4937e-66
3.56786e-66
3.62053e-66
3.64847e-66
5.90775e-66
5.8625e-66
5.77716e-66
5.65696e-66
5.50704e-66
5.33236e-66
5.13766e-66
4.92735e-66
4.70551e-66
4.47587e-66
4.24173e-66
4.00607e-66
3.77143e-66
3.54002e-66
3.3137e-66
3.09402e-66
2.8822e-66
2.67921e-66
2.48579e-66
2.30244e-66
2.12951e-66
1.96714e-66
1.81539e-66
1.67416e-66
1.54329e-66
1.42253e-66
1.31159e-66
1.21012e-66
1.11778e-66
1.03418e-66
9.58934e-67
8.91677e-67
8.32042e-67
7.79687e-67
7.34289e-67
6.95556e-67
6.63227e-67
6.37073e-67
6.16901e-67
6.02554e-67
5.93916e-67
5.90904e-67
5.93476e-67
6.01626e-67
6.15385e-67
6.34817e-67
6.60021e-67
6.91127e-67
7.2829e-67
7.71691e-67
8.21531e-67
8.78027e-67
9.41401e-67
1.01188e-66
1.08969e-66
1.17504e-66
1.2681e-66
1.36902e-66
1.4779e-66
1.59477e-66
1.71959e-66
1.8522e-66
1.99235e-66
2.13964e-66
2.29354e-66
2.45331e-66
2.61803e-66
2.78658e-66
2.95758e-66
3.12942e-66
3.30021e-66
3.46779e-66
3.62972e-66
3.78328e-66
3.92547e-66
4.05307e-66
4.16261e-66
4.25045e-66
4.31282e-66
4.34591e-66
7.0317e-66
6.97809e-66
6.87699e-66
6.73457e-66
6.55692e-66
6.34992e-66
6.11915e-66
5.86986e-66
5.60687e-66
5.33457e-66
5.05691e-66
4.77738e-66
4.49902e-66
4.22443e-66
3.95583e-66
3.69503e-66
3.4435e-66
3.20241e-66
2.9726e-66
2.75471e-66
2.54911e-66
2.35603e-66
2.1755e-66
2.00743e-66
1.85163e-66
1.70782e-66
1.57565e-66
1.45472e-66
1.34462e-66
1.2449e-66
1.15512e-66
1.07483e-66
1.00361e-66
9.4106e-67
8.86797e-67
8.40479e-67
8.01797e-67
7.70482e-67
7.46307e-67
7.29088e-67
7.18685e-67
7.15001e-67
7.17985e-67
7.2763e-67
7.43969e-67
7.67079e-67
7.97073e-67
8.34102e-67
8.78348e-67
9.30022e-67
9.89358e-67
1.05661e-66
1.13203e-66
1.2159e-66
1.30846e-66
1.40996e-66
1.52061e-66
1.64058e-66
1.76997e-66
1.90881e-66
2.05705e-66
2.21451e-66
2.38087e-66
2.55568e-66
2.73827e-66
2.92779e-66
3.12315e-66
3.323e-66
3.52572e-66
3.7294e-66
3.93179e-66
4.13036e-66
4.32219e-66
4.50409e-66
4.67251e-66
4.82362e-66
4.95333e-66
5.05734e-66
5.13119e-66
5.17035e-66
8.36141e-66
8.29791e-66
8.17816e-66
8.00945e-66
7.79898e-66
7.55372e-66
7.28029e-66
6.98487e-66
6.67318e-66
6.35043e-66
6.02128e-66
5.68987e-66
5.35979e-66
5.03413e-66
4.71552e-66
4.4061e-66
4.10763e-66
3.82148e-66
3.54866e-66
3.28992e-66
3.04573e-66
2.81634e-66
2.6018e-66
2.40201e-66
2.21676e-66
2.0457e-66
1.88844e-66
1.74452e-66
1.61344e-66
1.49468e-66
1.38771e-66
1.29203e-66
1.20713e-66
1.13253e-66
1.06779e-66
1.0125e-66
9.66312e-67
9.28896e-67
8.99987e-67
8.79367e-67
8.66871e-67
8.62385e-67
8.65846e-67
8.77246e-67
8.96623e-67
9.24066e-67
9.59706e-67
1.00372e-66
1.05632e-66
1.11775e-66
1.18829e-66
1.26823e-66
1.35788e-66
1.45754e-66
1.56752e-66
1.68809e-66
1.8195e-66
1.96195e-66
2.11555e-66
2.28034e-66
2.45625e-66
2.64306e-66
2.84039e-66
3.0477e-66
3.26419e-66
3.48887e-66
3.72042e-66
3.95727e-66
4.19748e-66
4.43878e-66
4.67854e-66
4.91373e-66
5.14093e-66
5.35634e-66
5.55577e-66
5.73468e-66
5.88825e-66
6.01137e-66
6.09879e-66
6.14515e-66
9.93483e-66
9.85962e-66
9.71779e-66
9.51796e-66
9.26866e-66
8.97812e-66
8.65419e-66
8.30418e-66
7.93488e-66
7.55242e-66
7.16235e-66
6.76955e-66
6.37828e-66
5.99221e-66
5.61444e-66
5.24752e-66
4.89352e-66
4.55407e-66
4.23039e-66
3.92335e-66
3.63352e-66
3.36119e-66
3.10645e-66
2.86916e-66
2.64909e-66
2.44583e-66
2.25892e-66
2.08781e-66
1.93193e-66
1.79066e-66
1.66339e-66
1.54951e-66
1.44843e-66
1.35959e-66
1.28246e-66
1.21658e-66
1.16151e-66
1.11688e-66
1.08237e-66
1.05772e-66
1.04274e-66
1.0373e-66
1.04132e-66
1.05478e-66
1.07773e-66
1.11028e-66
1.15258e-66
1.20484e-66
1.26729e-66
1.34024e-66
1.42401e-66
1.51893e-66
1.62536e-66
1.74367e-66
1.87422e-66
2.01731e-66
2.17325e-66
2.34225e-66
2.52446e-66
2.7199e-66
2.9285e-66
3.14998e-66
3.38392e-66
3.62963e-66
3.8862e-66
4.15242e-66
4.42677e-66
4.70734e-66
4.99187e-66
5.27767e-66
5.56161e-66
5.84011e-66
6.10913e-66
6.36416e-66
6.60025e-66
6.81205e-66
6.99384e-66
7.13957e-66
7.24304e-66
7.29791e-66
1.17969e-65
1.17078e-65
1.15398e-65
1.13032e-65
1.10079e-65
1.06638e-65
1.02801e-65
9.86546e-66
9.42795e-66
8.97484e-66
8.51267e-66
8.04723e-66
7.58356e-66
7.12601e-66
6.67824e-66
6.24328e-66
5.82359e-66
5.4211e-66
5.03725e-66
4.67308e-66
4.32926e-66
4.00615e-66
3.70385e-66
3.42222e-66
3.16096e-66
2.91962e-66
2.69765e-66
2.4944e-66
2.3092e-66
2.14131e-66
1.99003e-66
1.85464e-66
1.73443e-66
1.62875e-66
1.53698e-66
1.45857e-66
1.39299e-66
1.33983e-66
1.29869e-66
1.26927e-66
1.25135e-66
1.24477e-66
1.24943e-66
1.26532e-66
1.2925e-66
1.33107e-66
1.38123e-66
1.4432e-66
1.5173e-66
1.60385e-66
1.70322e-66
1.81584e-66
1.9421e-66
2.08244e-66
2.23728e-66
2.40699e-66
2.5919e-66
2.79227e-66
3.00828e-66
3.23996e-66
3.48719e-66
3.74966e-66
4.02685e-66
4.31796e-66
4.62191e-66
4.93726e-66
5.26219e-66
5.59447e-66
5.9314e-66
6.26982e-66
6.606e-66
6.93572e-66
7.25419e-66
7.55609e-66
7.83556e-66
8.08626e-66
8.30141e-66
8.4739e-66
8.59635e-66
8.66129e-66
1.40007e-65
1.38952e-65
1.36963e-65
1.3416e-65
1.30663e-65
1.26588e-65
1.22043e-65
1.17133e-65
1.1195e-65
1.06583e-65
1.01108e-65
9.55937e-66
9.01002e-66
8.46788e-66
7.93727e-66
7.42181e-66
6.92439e-66
6.4473e-66
5.99225e-66
5.56049e-66
5.1528e-66
4.76962e-66
4.41107e-66
4.07698e-66
3.76701e-66
3.48063e-66
3.21718e-66
2.97592e-66
2.75603e-66
2.55667e-66
2.377e-66
2.21615e-66
2.07332e-66
1.94773e-66
1.83864e-66
1.7454e-66
1.6674e-66
1.60413e-66
1.55515e-66
1.52009e-66
1.49869e-66
1.49074e-66
1.49616e-66
1.51491e-66
1.54705e-66
1.59274e-66
1.65217e-66
1.72563e-66
1.81347e-66
1.91608e-66
2.0339e-66
2.16741e-66
2.31711e-66
2.48348e-66
2.66702e-66
2.86818e-66
3.08733e-66
3.3248e-66
3.58076e-66
3.85526e-66
4.14815e-66
4.45908e-66
4.78742e-66
5.13221e-66
5.49218e-66
5.86561e-66
6.25036e-66
6.64379e-66
7.0427e-66
7.44334e-66
7.84131e-66
8.23161e-66
8.60858e-66
8.96591e-66
9.29668e-66
9.59339e-66
9.84803e-66
1.00522e-65
1.01971e-65
1.02739e-65
1.66092e-65
1.64844e-65
1.62488e-65
1.59169e-65
1.55028e-65
1.50202e-65
1.44819e-65
1.39003e-65
1.32866e-65
1.26509e-65
1.20023e-65
1.13492e-65
1.06984e-65
1.00561e-65
9.42749e-66
8.81675e-66
8.22733e-66
7.66196e-66
7.12267e-66
6.61092e-66
6.12766e-66
5.6734e-66
5.24829e-66
4.85214e-66
4.48454e-66
4.14486e-66
3.83235e-66
3.54611e-66
3.2852e-66
3.04861e-66
2.83534e-66
2.6444e-66
2.47481e-66
2.32565e-66
2.19608e-66
2.08529e-66
1.9926e-66
1.91738e-66
1.85911e-66
1.81736e-66
1.79182e-66
1.78226e-66
1.78855e-66
1.81067e-66
1.84868e-66
1.90276e-66
1.97314e-66
2.06017e-66
2.16424e-66
2.28583e-66
2.42545e-66
2.58366e-66
2.76104e-66
2.95819e-66
3.17566e-66
3.41398e-66
3.67362e-66
3.95492e-66
4.25812e-66
4.58325e-66
4.93015e-66
5.29837e-66
5.68718e-66
6.09545e-66
6.52166e-66
6.96379e-66
7.41929e-66
7.88504e-66
8.35726e-66
8.83149e-66
9.30255e-66
9.76451e-66
1.02107e-65
1.06336e-65
1.1025e-65
1.13762e-65
1.16775e-65
1.19191e-65
1.20906e-65
1.21815e-65
1.9697e-65
1.95492e-65
1.92702e-65
1.88772e-65
1.83869e-65
1.78153e-65
1.7178e-65
1.64892e-65
1.57623e-65
1.50094e-65
1.42413e-65
1.34677e-65
1.26969e-65
1.19361e-65
1.11914e-65
1.04679e-65
9.76964e-66
9.09978e-66
8.46078e-66
7.85438e-66
7.28168e-66
6.74331e-66
6.23942e-66
5.76983e-66
5.33404e-66
4.93131e-66
4.56074e-66
4.22129e-66
3.91183e-66
3.63119e-66
3.37818e-66
3.15162e-66
2.95036e-66
2.77333e-66
2.61951e-66
2.48797e-66
2.37788e-66
2.28851e-66
2.21925e-66
2.16959e-66
2.13914e-66
2.12765e-66
2.13497e-66
2.16105e-66
2.206e-66
2.26998e-66
2.35331e-66
2.45636e-66
2.57962e-66
2.72363e-66
2.88901e-66
3.07641e-66
3.28653e-66
3.52004e-66
3.77763e-66
4.0599e-66
4.36739e-66
4.70054e-66
5.05958e-66
5.44459e-66
5.85534e-66
6.29132e-66
6.75165e-66
7.235e-66
7.73956e-66
8.26293e-66
8.80212e-66
9.3534e-66
9.91233e-66
1.04736e-65
1.10311e-65
1.15779e-65
1.21059e-65
1.26064e-65
1.30696e-65
1.34851e-65
1.38417e-65
1.41276e-65
1.43305e-65
1.44381e-65
2.33523e-65
2.31772e-65
2.28469e-65
2.23816e-65
2.18009e-65
2.11241e-65
2.03694e-65
1.95538e-65
1.8693e-65
1.78014e-65
1.68918e-65
1.59755e-65
1.50626e-65
1.41615e-65
1.32795e-65
1.24225e-65
1.15953e-65
1.08018e-65
1.00448e-65
9.32636e-66
8.64782e-66
8.00989e-66
7.41279e-66
6.85628e-66
6.33978e-66
5.86243e-66
5.42315e-66
5.02073e-66
4.65383e-66
4.32106e-66
4.02102e-66
3.75231e-66
3.51359e-66
3.30357e-66
3.12105e-66
2.96495e-66
2.83427e-66
2.72815e-66
2.64587e-66
2.58683e-66
2.55058e-66
2.53679e-66
2.5453e-66
2.57607e-66
2.62919e-66
2.70488e-66
2.80349e-66
2.92548e-66
3.07142e-66
3.24194e-66
3.43777e-66
3.65969e-66
3.9085e-66
4.18501e-66
4.49002e-66
4.82426e-66
5.18835e-66
5.5828e-66
6.00789e-66
6.4637e-66
6.94997e-66
7.4661e-66
8.01101e-66
8.58316e-66
9.18039e-66
9.79987e-66
1.0438e-65
1.10905e-65
1.1752e-65
1.24163e-65
1.30761e-65
1.37231e-65
1.43479e-65
1.49402e-65
1.54884e-65
1.59801e-65
1.6402e-65
1.67403e-65
1.69804e-65
1.71077e-65
2.76794e-65
2.74721e-65
2.7081e-65
2.653e-65
2.58425e-65
2.50411e-65
2.41474e-65
2.31816e-65
2.21623e-65
2.11065e-65
2.00293e-65
1.89443e-65
1.78631e-65
1.6796e-65
1.57514e-65
1.47363e-65
1.37566e-65
1.28167e-65
1.192e-65
1.10689e-65
1.02651e-65
9.50933e-66
8.80189e-66
8.14251e-66
7.53049e-66
6.96482e-66
6.44424e-66
5.96729e-66
5.5324e-66
5.13793e-66
4.78223e-66
4.46364e-66
4.18057e-66
3.93151e-66
3.71504e-66
3.52985e-66
3.3748e-66
3.24886e-66
3.15116e-66
3.08101e-66
3.03787e-66
3.02135e-66
3.03126e-66
3.06755e-66
3.13032e-66
3.21984e-66
3.33652e-66
3.4809e-66
3.65364e-66
3.8555e-66
4.08733e-66
4.35005e-66
4.64462e-66
4.97199e-66
5.33308e-66
5.72877e-66
6.15979e-66
6.62674e-66
7.12995e-66
7.6695e-66
8.2451e-66
8.85601e-66
9.50098e-66
1.01782e-65
1.0885e-65
1.16182e-65
1.23734e-65
1.31456e-65
1.39284e-65
1.47145e-65
1.54953e-65
1.62609e-65
1.70003e-65
1.77012e-65
1.83498e-65
1.89317e-65
1.9431e-65
1.98312e-65
2.01153e-65
2.02659e-65
3.28021e-65
3.25566e-65
3.20936e-65
3.14412e-65
3.06271e-65
2.96782e-65
2.862e-65
2.74764e-65
2.62694e-65
2.50192e-65
2.37436e-65
2.24587e-65
2.11785e-65
1.99147e-65
1.86776e-65
1.74755e-65
1.63152e-65
1.5202e-65
1.41399e-65
1.31319e-65
1.21797e-65
1.12845e-65
1.04464e-65
9.66528e-66
8.94019e-66
8.26999e-66
7.65316e-66
7.08799e-66
6.57264e-66
6.10515e-66
5.68356e-66
5.30593e-66
4.97038e-66
4.6751e-66
4.41843e-66
4.19883e-66
4.01492e-66
3.8655e-66
3.74955e-66
3.66624e-66
3.61492e-66
3.59516e-66
3.60671e-66
3.6495e-66
3.72368e-66
3.82954e-66
3.96757e-66
4.13841e-66
4.34284e-66
4.58175e-66
4.85615e-66
5.16713e-66
5.51581e-66
5.90331e-66
6.33073e-66
6.7991e-66
7.30929e-66
7.86198e-66
8.45759e-66
9.0962e-66
9.77745e-66
1.05005e-65
1.12638e-65
1.20652e-65
1.29018e-65
1.37694e-65
1.46632e-65
1.5577e-65
1.65033e-65
1.74335e-65
1.83575e-65
1.92634e-65
2.01384e-65
2.09676e-65
2.17352e-65
2.24236e-65
2.30144e-65
2.3488e-65
2.38241e-65
2.40024e-65
3.88667e-65
3.85761e-65
3.80279e-65
3.72554e-65
3.62915e-65
3.51679e-65
3.3915e-65
3.25608e-65
3.11317e-65
2.96512e-65
2.81409e-65
2.66194e-65
2.51033e-65
2.36068e-65
2.21419e-65
2.07183e-65
1.93442e-65
1.80258e-65
1.6768e-65
1.55741e-65
1.44464e-65
1.3386e-65
1.23934e-65
1.14681e-65
1.06092e-65
9.81521e-66
9.08446e-66
8.41487e-66
7.80426e-66
7.25034e-66
6.75077e-66
6.30325e-66
5.90557e-66
5.55558e-66
5.25132e-66
4.99097e-66
4.7729e-66
4.59569e-66
4.45812e-66
4.35921e-66
4.29821e-66
4.27458e-66
4.28804e-66
4.33852e-66
4.42616e-66
4.55133e-66
4.71461e-66
4.91673e-66
5.15862e-66
5.44134e-66
5.76609e-66
6.13414e-66
6.5468e-66
7.00542e-66
7.5113e-66
8.06563e-66
8.66945e-66
9.32357e-66
1.00285e-65
1.07843e-65
1.15905e-65
1.24462e-65
1.33495e-65
1.42979e-65
1.52878e-65
1.63146e-65
1.73722e-65
1.84535e-65
1.95497e-65
2.06504e-65
2.17437e-65
2.28157e-65
2.3851e-65
2.48322e-65
2.57404e-65
2.6555e-65
2.7254e-65
2.78144e-65
2.82121e-65
2.8423e-65
4.60466e-65
4.57025e-65
4.50534e-65
4.41388e-65
4.29975e-65
4.16672e-65
4.01836e-65
3.85803e-65
3.6888e-65
3.51351e-65
3.33467e-65
3.15451e-65
2.97499e-65
2.79779e-65
2.62431e-65
2.45574e-65
2.29302e-65
2.13689e-65
1.98794e-65
1.84655e-65
1.71299e-65
1.58741e-65
1.46984e-65
1.36024e-65
1.25851e-65
1.16447e-65
1.0779e-65
9.98584e-66
9.26247e-66
8.60622e-66
8.01433e-66
7.48409e-66
7.01285e-66
6.5981e-66
6.2375e-66
5.92891e-66
5.67039e-66
5.46025e-66
5.29708e-66
5.17969e-66
5.1072e-66
5.07898e-66
5.09468e-66
5.15422e-66
5.25777e-66
5.40576e-66
5.59887e-66
5.83798e-66
6.12418e-66
6.45871e-66
6.843e-66
7.27853e-66
7.76688e-66
8.30963e-66
8.9083e-66
9.56431e-66
1.02789e-65
1.1053e-65
1.18872e-65
1.27816e-65
1.37356e-65
1.47482e-65
1.58172e-65
1.69395e-65
1.81109e-65
1.93258e-65
2.05773e-65
2.18568e-65
2.31539e-65
2.44563e-65
2.57499e-65
2.70184e-65
2.82434e-65
2.94044e-65
3.0479e-65
3.14429e-65
3.22699e-65
3.29329e-65
3.34035e-65
3.36531e-65
5.4547e-65
5.41396e-65
5.3371e-65
5.22881e-65
5.09368e-65
4.93617e-65
4.76051e-65
4.57067e-65
4.3703e-65
4.16274e-65
3.95098e-65
3.73767e-65
3.5251e-65
3.31527e-65
3.10985e-65
2.91024e-65
2.71756e-65
2.53268e-65
2.35629e-65
2.18885e-65
2.03069e-65
1.88196e-65
1.74273e-65
1.61293e-65
1.49244e-65
1.38106e-65
1.27853e-65
1.18458e-65
1.09889e-65
1.02115e-65
9.51034e-66
8.88216e-66
8.32384e-66
7.83242e-66
7.40513e-66
7.03941e-66
6.73299e-66
6.48387e-66
6.29036e-66
6.15108e-66
6.06497e-66
6.03128e-66
6.0496e-66
6.11983e-66
6.24218e-66
6.41715e-66
6.64553e-66
6.92837e-66
7.26696e-66
7.66277e-66
8.11747e-66
8.63283e-66
9.2107e-66
9.85295e-66
1.05614e-65
1.13377e-65
1.21833e-65
1.30993e-65
1.40864e-65
1.51448e-65
1.62738e-65
1.74719e-65
1.87369e-65
2.00649e-65
2.14509e-65
2.28886e-65
2.43694e-65
2.58834e-65
2.74182e-65
2.89593e-65
3.04899e-65
3.19908e-65
3.34402e-65
3.48139e-65
3.60854e-65
3.72258e-65
3.82044e-65
3.89889e-65
3.95457e-65
3.98409e-65
6.46108e-65
6.41284e-65
6.32185e-65
6.19363e-65
6.03363e-65
5.84714e-65
5.63915e-65
5.41438e-65
5.17714e-65
4.93138e-65
4.68065e-65
4.42807e-65
4.17638e-65
3.92793e-65
3.6847e-65
3.44833e-65
3.22017e-65
3.00126e-65
2.79238e-65
2.59411e-65
2.40681e-65
2.23069e-65
2.06581e-65
1.9121e-65
1.7694e-65
1.63748e-65
1.51605e-65
1.40478e-65
1.30329e-65
1.21121e-65
1.12815e-65
1.05374e-65
9.87599e-66
9.2938e-66
8.78752e-66
8.35417e-66
7.99103e-66
7.69574e-66
7.46631e-66
7.30108e-66
7.19881e-66
7.15862e-66
7.18e-66
7.26285e-66
7.4074e-66
7.61426e-66
7.88435e-66
8.21891e-66
8.61945e-66
9.08773e-66
9.62571e-66
1.02355e-65
1.09192e-65
1.16792e-65
1.25175e-65
1.3436e-65
1.44366e-65
1.55205e-65
1.66886e-65
1.79409e-65
1.92768e-65
2.06946e-65
2.21913e-65
2.37627e-65
2.54028e-65
2.71038e-65