/*--------------------------------*- C++ -*----------------------------------*\
  =========                 |
  \\      /  F ield         | OpenFOAM: The Open Source CFD Toolbox
   \\    /   O peration     | Website:  https://openfoam.org
    \\  /    A nd           | Version:  11
     \\/     M anipulation  |
\*---------------------------------------------------------------------------*/
FoamFile
{
    format      ascii;
    class       volScalarField;
    location    "100";
    object      C;
}
// * * * * * * * * * * * * * * * * * * * * * * * * * * * * * * * * * * * * * //

dimensions      [0 0 0 1 0 0 0];

internalField   nonuniform List<scalar> 
427520
(
-9.79122e-274
-8.81307e-274
-7.31449e-274
-5.74768e-274
-4.34061e-274
-3.18318e-274
-2.28416e-274
-1.61244e-274
-1.12381e-274
-7.75043e-275
-5.2961e-275
-3.5885e-275
-2.41196e-275
-1.60844e-275
-1.06424e-275
-6.98639e-276
-4.54987e-276
-2.93903e-276
-1.88267e-276
-1.19563e-276
-7.52561e-277
-4.69316e-277
-2.8987e-277
-1.77246e-277
-1.07248e-277
-6.41839e-278
-3.79719e-278
-2.21946e-278
-1.2809e-278
-7.29422e-279
-4.09577e-279
-2.26597e-279
-1.2342e-279
-6.61237e-280
-3.48152e-280
-1.79968e-280
-9.124e-281
-4.53148e-281
-2.20184e-281
-1.04476e-281
-4.82547e-282
-2.18721e-282
-9.75036e-283
-4.28138e-283
-1.85371e-283
-7.9203e-284
-3.3415e-284
-1.39267e-284
-5.73615e-285
-2.33556e-285
-9.40297e-286
-3.74394e-286
-1.47452e-286
-5.74496e-287
-2.21451e-287
-8.44605e-288
-3.18737e-288
-1.1902e-288
-4.39755e-289
-1.60763e-289
-5.81451e-290
-2.0804e-290
-7.36253e-291
-2.57678e-291
-8.91695e-292
-3.05058e-292
-1.03196e-292
-3.45817e-293
-1.15854e-293
-4.03946e-294
-1.69115e-294
-1.10991e-294
-1.17666e-294
-1.54763e-294
-2.13485e-294
-2.92558e-294
-3.90803e-294
-5.02386e-294
-6.12032e-294
-6.88745e-294
-7.64137e-273
-5.80856e-273
-4.31804e-273
-3.18384e-273
-2.32851e-273
-1.68711e-273
-1.20982e-273
-8.58279e-274
-6.02406e-274
-4.18452e-274
-2.87798e-274
-1.96065e-274
-1.32355e-274
-8.85581e-275
-5.87401e-275
-3.86272e-275
-2.51825e-275
-1.62747e-275
-1.04248e-275
-6.6172e-276
-4.16112e-276
-2.59142e-276
-1.5977e-276
-9.74776e-277
-5.88254e-277
-3.50958e-277
-2.06888e-277
-1.20433e-277
-6.91837e-278
-3.91925e-278
-2.18785e-278
-1.20252e-278
-6.50198e-279
-3.45519e-279
-1.80274e-279
-9.22483e-280
-4.62423e-280
-2.2679e-280
-1.08655e-280
-5.07377e-281
-2.29724e-281
-1.02349e-281
-4.49247e-282
-1.94448e-282
-8.30517e-283
-3.50233e-283
-1.45889e-283
-6.00482e-284
-2.44295e-284
-9.82594e-285
-3.90807e-285
-1.53728e-285
-5.98136e-286
-2.30224e-286
-8.76679e-287
-3.30287e-287
-1.23117e-287
-4.54066e-288
-1.65688e-288
-5.98152e-289
-2.13626e-289
-7.54709e-290
-2.63719e-290
-9.11364e-291
-3.11457e-291
-1.05268e-291
-3.52134e-292
-1.17006e-292
-3.92425e-293
-1.41817e-293
-6.72418e-294
-5.29557e-294
-6.19971e-294
-8.3686e-294
-1.1628e-293
-1.61419e-293
-2.22534e-293
-3.04573e-293
-4.13686e-293
-5.49704e-293
-3.97007e-272
-2.90813e-272
-2.01474e-272
-1.39491e-272
-9.71941e-273
-6.80342e-273
-4.76871e-273
-3.33715e-273
-2.32618e-273
-1.61241e-273
-1.11013e-273
-7.58572e-274
-5.1419e-274
-3.45627e-274
-2.30325e-274
-1.52138e-274
-9.95913e-275
-6.45962e-275
-4.15049e-275
-2.64115e-275
-1.66402e-275
-1.03765e-275
-6.40193e-276
-3.90614e-276
-2.35591e-276
-1.40383e-276
-8.25974e-277
-4.79556e-277
-2.74559e-277
-1.54892e-277
-8.60343e-278
-4.70085e-278
-2.52424e-278
-1.33073e-278
-6.8796e-279
-3.48362e-279
-1.72552e-279
-8.34837e-280
-3.93836e-280
-1.80664e-280
-8.00116e-281
-3.49428e-281
-1.50571e-281
-6.40494e-282
-2.69063e-282
-1.11662e-282
-4.57929e-283
-1.85624e-283
-7.43895e-284
-2.94787e-284
-1.1553e-284
-4.47853e-285
-1.71743e-285
-6.51583e-286
-2.44595e-286
-9.08538e-287
-3.33949e-287
-1.21473e-287
-4.37276e-288
-1.55783e-288
-5.49274e-289
-1.9168e-289
-6.62087e-290
-2.2639e-290
-7.66502e-291
-2.57129e-291
-8.56157e-292
-2.84825e-292
-9.71878e-293
-3.74851e-293
-2.06913e-293
-1.90607e-293
-2.3987e-293
-3.33741e-293
-4.75996e-293
-6.84193e-293
-9.89693e-293
-1.44155e-292
-2.09834e-292
-2.88792e-292
-1.61519e-271
-1.20419e-271
-8.17959e-272
-5.45237e-272
-3.64623e-272
-2.45793e-272
-1.66889e-272
-1.13863e-272
-7.78569e-273
-5.32271e-273
-3.63088e-273
-2.46728e-273
-1.66794e-273
-1.12056e-273
-7.47518e-274
-4.94809e-274
-3.24813e-274
-2.11343e-274
-1.3624e-274
-8.69738e-275
-5.49608e-275
-3.43642e-275
-2.12492e-275
-1.29881e-275
-7.84303e-276
-4.67635e-276
-2.75132e-276
-1.59621e-276
-9.125e-277
-5.13595e-277
-2.84362e-277
-1.54728e-277
-8.26545e-278
-4.32984e-278
-2.22152e-278
-1.11486e-278
-5.46437e-279
-2.61156e-279
-1.21461e-279
-5.47976e-280
-2.37677e-280
-1.01799e-280
-4.30672e-281
-1.80006e-281
-7.4346e-282
-3.0349e-282
-1.22469e-282
-4.88632e-283
-1.92788e-283
-7.52295e-284
-2.90384e-284
-1.1089e-284
-4.18999e-285
-1.56671e-285
-5.79796e-286
-2.12388e-286
-7.70213e-287
-2.76553e-287
-9.83326e-288
-3.46294e-288
-1.20814e-288
-4.17664e-289
-1.43131e-289
-4.86469e-290
-1.64103e-290
-5.50179e-291
-1.83917e-291
-6.19434e-292
-2.18499e-292
-9.19146e-293
-5.90971e-293
-6.15439e-293
-8.20214e-293
-1.18106e-292
-1.74175e-292
-2.5996e-292
-3.9159e-292
-5.91886e-292
-8.77603e-292
-1.18512e-291
-5.64259e-271
-4.32054e-271
-2.95421e-271
-1.94209e-271
-1.26645e-271
-8.28891e-272
-5.46351e-272
-3.6263e-272
-2.42005e-272
-1.62071e-272
-1.08704e-272
-7.28842e-273
-4.87698e-273
-3.25209e-273
-2.15834e-273
-1.42412e-273
-9.33313e-274
-6.07004e-274
-3.9148e-274
-2.50194e-274
-1.58346e-274
-9.91799e-275
-6.14401e-275
-3.76196e-275
-2.27524e-275
-1.35828e-275
-7.99824e-276
-4.64197e-276
-2.65312e-276
-1.49202e-276
-8.24779e-277
-4.47706e-277
-2.3837e-277
-1.24329e-277
-6.34424e-278
-3.16246e-278
-1.53747e-278
-7.27667e-279
-3.34533e-279
-1.48857e-279
-6.34445e-280
-2.67233e-280
-1.11247e-280
-4.57755e-281
-1.86195e-281
-7.48768e-282
-2.97735e-282
-1.1708e-282
-4.5537e-283
-1.75207e-283
-6.66981e-284
-2.51263e-284
-9.36867e-285
-3.45817e-285
-1.26393e-285
-4.57517e-286
-1.64062e-286
-5.8297e-287
-2.05335e-287
-7.17177e-288
-2.48505e-288
-8.54752e-289
-2.92048e-289
-9.92185e-290
-3.35608e-290
-1.13273e-290
-3.83326e-291
-1.31986e-291
-4.86956e-292
-2.25182e-292
-1.65252e-292
-1.88384e-292
-2.6279e-292
-3.90757e-292
-5.93957e-292
-9.12716e-292
-1.40897e-291
-2.15739e-291
-3.17446e-291
-4.17008e-291
-1.77221e-270
-1.39128e-270
-9.67361e-271
-6.36682e-271
-4.10458e-271
-2.63505e-271
-1.6968e-271
-1.09878e-271
-7.15715e-272
-4.68529e-272
-3.07828e-272
-2.02665e-272
-1.33498e-272
-8.78492e-273
-5.76715e-273
-3.77209e-273
-2.4552e-273
-1.58855e-273
-1.02068e-273
-6.50647e-274
-4.11136e-274
-2.57303e-274
-1.59355e-274
-9.75881e-275
-5.90456e-275
-3.52678e-275
-2.07779e-275
-1.20634e-275
-6.89571e-276
-3.87701e-276
-2.14172e-276
-1.16114e-276
-6.17048e-277
-3.20988e-277
-1.63214e-277
-8.09898e-278
-3.91508e-278
-1.84003e-278
-8.38755e-279
-3.69381e-279
-1.55362e-279
-6.4597e-280
-2.6551e-280
-1.07888e-280
-4.33436e-281
-1.72181e-281
-6.76409e-282
-2.62826e-282
-1.01027e-282
-3.8424e-283
-1.4463e-283
-5.38897e-284
-1.9882e-284
-7.26518e-285
-2.63026e-285
-9.43788e-286
-3.35772e-286
-1.18497e-286
-4.15044e-287
-1.44369e-287
-4.99084e-288
-1.71627e-288
-5.87759e-289
-2.00739e-289
-6.85053e-290
-2.34311e-290
-8.08369e-291
-2.86612e-291
-1.11234e-291
-5.62188e-292
-4.57095e-292
-5.5546e-292
-8.02676e-292
-1.2257e-291
-1.90687e-291
-2.98571e-291
-4.65869e-291
-7.11916e-291
-1.02933e-290
-1.31796e-290
-5.14493e-270
-4.1248e-270
-2.9233e-270
-1.941e-270
-1.24866e-270
-7.93054e-271
-5.02289e-271
-3.18817e-271
-2.03213e-271
-1.30129e-271
-8.36765e-272
-5.39804e-272
-3.48947e-272
-2.25745e-272
-1.45966e-272
-9.42116e-273
-6.06231e-273
-3.88452e-273
-2.47579e-273
-1.5678e-273
-9.85421e-274
-6.14138e-274
-3.79138e-274
-2.31629e-274
-1.39906e-274
-8.34654e-275
-4.91326e-275
-2.85093e-275
-1.62891e-275
-9.15411e-276
-5.05401e-276
-2.73787e-276
-1.45333e-276
-7.54844e-277
-3.83012e-277
-1.89532e-277
-9.12951e-278
-4.27156e-278
-1.93635e-278
-8.46915e-279
-3.53065e-279
-1.45494e-279
-5.92679e-280
-2.38678e-280
-9.50315e-281
-3.74151e-281
-1.45687e-281
-5.61154e-282
-2.13858e-282
-8.06607e-283
-3.01175e-283
-1.11361e-283
-4.0791e-284
-1.48074e-284
-5.3293e-285
-1.90263e-285
-6.74188e-286
-2.37263e-286
-8.29897e-287
-2.88768e-287
-1.00059e-287
-3.45688e-288
-1.19259e-288
-4.11622e-289
-1.4249e-289
-4.96583e-290
-1.7558e-290
-6.43783e-291
-2.62745e-291
-1.42957e-291
-1.24908e-291
-1.58458e-291
-2.3504e-291
-3.6624e-291
-5.78961e-291
-9.15678e-291
-1.4308e-290
-2.16584e-290
-3.07036e-290
-3.8477e-290
-1.40574e-269
-1.14653e-269
-8.27512e-270
-5.5601e-270
-3.58887e-270
-2.26902e-270
-1.42162e-270
-8.88607e-271
-5.56134e-271
-3.4908e-271
-2.19872e-271
-1.3894e-271
-8.80289e-272
-5.58699e-272
-3.54847e-272
-2.25287e-272
-1.42813e-272
-9.02909e-273
-5.68674e-273
-3.564e-273
-2.22014e-273
-1.37314e-273
-8.42298e-274
-5.11872e-274
-3.0784e-274
-1.83014e-274
-1.07436e-274
-6.22052e-275
-3.54815e-275
-1.99132e-275
-1.0982e-275
-5.94346e-276
-3.15194e-276
-1.63541e-276
-8.28807e-277
-4.09518e-277
-1.96888e-277
-9.19018e-278
-4.15359e-278
-1.80993e-278
-7.50919e-279
-3.07882e-279
-1.2476e-279
-4.9972e-280
-1.97882e-280
-7.74814e-281
-3.00058e-281
-1.14959e-281
-4.35853e-282
-1.63585e-282
-6.08016e-283
-2.23891e-283
-8.17161e-284
-2.95769e-284
-1.06224e-284
-3.78793e-285
-1.34218e-285
-4.72948e-286
-1.65895e-286
-5.79909e-287
-2.02286e-287
-7.05226e-288
-2.46184e-288
-8.62492e-289
-3.04156e-289
-1.0844e-289
-3.94274e-290
-1.49719e-290
-6.39592e-291
-3.67662e-291
-3.36129e-291
-4.3798e-291
-6.61586e-291
-1.04574e-290
-1.66966e-290
-2.65082e-290
-4.12551e-290
-6.16759e-290
-8.58125e-290
-1.05668e-289
-3.66003e-269
-3.02711e-269
-2.2207e-269
-1.5109e-269
-9.813e-270
-6.20087e-270
-3.85988e-270
-2.3855e-270
-1.47082e-270
-9.07234e-271
-5.60636e-271
-3.47283e-271
-2.15634e-271
-1.34154e-271
-8.35715e-272
-5.20861e-272
-3.24484e-272
-2.01853e-272
-1.25255e-272
-7.74468e-273
-4.76627e-273
-2.91633e-273
-1.77207e-273
-1.0681e-273
-6.3786e-274
-3.76964e-274
-2.20197e-274
-1.26975e-274
-7.21867e-275
-4.04066e-275
-2.2238e-275
-1.20158e-275
-6.36431e-276
-3.29894e-276
-1.67053e-276
-8.24835e-277
-3.96289e-277
-1.84838e-277
-8.34666e-278
-3.63323e-278
-1.50552e-278
-6.16292e-279
-2.49269e-279
-9.96373e-280
-3.93691e-280
-1.53811e-280
-5.94364e-281
-2.27247e-281
-8.59987e-282
-3.22269e-282
-1.19641e-282
-4.40255e-283
-1.60671e-283
-5.81917e-284
-2.09306e-284
-7.48259e-285
-2.6611e-285
-9.42446e-286
-3.32773e-286
-1.17307e-286
-4.13488e-287
-1.46004e-287
-5.17567e-288
-1.84674e-288
-6.65451e-289
-2.4332e-289
-9.11125e-290
-3.58064e-290
-1.59038e-290
-9.48837e-291
-8.88571e-291
-1.17434e-290
-1.79455e-290
-2.86326e-290
-4.59614e-290
-7.29524e-290
-1.12768e-289
-1.66408e-289
-2.27703e-289
-2.7642e-289
-9.16329e-269
-7.6655e-269
-5.7034e-269
-3.92727e-269
-2.56956e-269
-1.62678e-269
-1.00913e-269
-6.18595e-270
-3.76851e-270
-2.2899e-270
-1.39096e-270
-8.4569e-271
-5.14931e-271
-3.14027e-271
-1.91761e-271
-1.17197e-271
-7.16392e-272
-4.37648e-272
-2.66965e-272
-1.62453e-272
-9.85143e-273
-5.94713e-273
-3.57e-273
-2.12853e-273
-1.259e-273
-7.37847e-274
-4.27908e-274
-2.45248e-274
-1.38719e-274
-7.73262e-275
-4.24165e-275
-2.28605e-275
-1.20856e-275
-6.25655e-276
-3.16581e-276
-1.56266e-276
-7.50841e-277
-3.50364e-277
-1.58333e-277
-6.89982e-278
-2.86409e-278
-1.17402e-278
-4.75359e-279
-1.90177e-279
-7.52012e-280
-2.94022e-280
-1.13709e-280
-4.35164e-281
-1.64878e-281
-6.18794e-282
-2.3017e-282
-8.49064e-283
-3.10828e-283
-1.1301e-283
-4.0841e-284
-1.46848e-284
-5.25887e-285
-1.87796e-285
-6.69632e-286
-2.38789e-286
-8.5308e-287
-3.05952e-287
-1.10419e-287
-4.02156e-288
-1.48334e-288
-5.56862e-289
-2.14762e-289
-8.71664e-290
-3.99794e-290
-2.44042e-290
-2.30444e-290
-3.05931e-290
-4.70401e-290
-7.54638e-290
-1.21392e-289
-1.92164e-289
-2.94697e-289
-4.29507e-289
-5.79288e-289
-6.95095e-289
-2.22128e-268
-1.87562e-268
-1.41248e-268
-9.83315e-269
-6.48274e-269
-4.11734e-269
-2.55041e-269
-1.55438e-269
-9.37892e-270
-5.62671e-270
-3.366e-270
-2.01158e-270
-1.20229e-270
-7.19086e-271
-4.30449e-271
-2.5786e-271
-1.54529e-271
-9.25929e-272
-5.54369e-272
-3.31389e-272
-1.97613e-272
-1.1744e-272
-6.94859e-273
-4.08859e-273
-2.3897e-273
-1.3857e-273
-7.96151e-274
-4.52619e-274
-2.54253e-274
-1.40915e-274
-7.69371e-275
-4.13139e-275
-2.17821e-275
-1.12557e-275
-5.68963e-276
-2.80778e-276
-1.3498e-276
-6.30639e-277
-2.85558e-277
-1.24788e-277
-5.20124e-278
-2.14009e-278
-8.69573e-279
-3.49061e-279
-1.38483e-279
-5.43233e-280
-2.10802e-280
-8.09628e-281
-3.07937e-281
-1.16056e-281
-4.33697e-282
-1.60817e-282
-5.92174e-283
-2.16727e-283
-7.89119e-284
-2.86154e-284
-1.03467e-284
-3.73532e-285
-1.34843e-285
-4.87571e-286
-1.76928e-286
-6.4575e-287
-2.37653e-287
-8.84562e-288
-3.34194e-288
-1.28807e-288
-5.11113e-289
-2.13671e-289
-1.00612e-289
-6.22087e-290
-5.85972e-290
-7.75854e-290
-1.19523e-289
-1.9222e-289
-3.09183e-289
-4.87478e-289
-7.41539e-289
-1.0686e-288
-1.42357e-288
-1.69196e-288
-5.24211e-268
-4.4605e-268
-3.39365e-268
-2.38563e-268
-1.58428e-268
-1.01002e-268
-6.25547e-269
-3.79704e-269
-2.27357e-269
-1.34927e-269
-7.96315e-270
-4.68481e-270
-2.75178e-270
-1.61543e-270
-9.4834e-271
-5.5686e-271
-3.27054e-271
-1.9208e-271
-1.1276e-271
-6.61293e-272
-3.87175e-272
-2.26124e-272
-1.31621e-272
-7.62791e-273
-4.39661e-273
-2.51739e-273
-1.43007e-273
-8.04926e-274
-4.48258e-274
-2.46617e-274
-1.3383e-274
-7.15153e-275
-3.75666e-275
-1.93626e-275
-9.77339e-276
-4.82119e-276
-2.31925e-276
-1.08544e-276
-4.92874e-277
-2.16255e-277
-9.06694e-278
-3.75178e-278
-1.53283e-278
-6.18624e-279
-2.46747e-279
-9.73186e-280
-3.7975e-280
-1.46695e-280
-5.6134e-281
-2.12926e-281
-8.01214e-282
-2.9932e-282
-1.11115e-282
-4.1028e-283
-1.50841e-283
-5.5284e-284
-2.02248e-284
-7.39604e-285
-2.70798e-285
-9.94511e-286
-3.67092e-286
-1.36503e-286
-5.12688e-287
-1.95085e-287
-7.54822e-288
-2.98444e-288
-1.21644e-288
-5.22324e-289
-2.51369e-289
-1.56458e-289
-1.46062e-289
-1.91933e-289
-2.95299e-289
-4.75057e-289
-7.62984e-289
-1.19744e-288
-1.80741e-288
-2.57852e-288
-3.39926e-288
-4.00855e-288
-1.20968e-267
-1.03586e-267
-7.94958e-268
-5.63597e-268
-3.76801e-268
-2.41164e-268
-1.49454e-268
-9.0461e-269
-5.38327e-269
-3.16541e-269
-1.84602e-269
-1.07069e-269
-6.18838e-270
-3.56932e-270
-2.05637e-270
-1.18404e-270
-6.81572e-271
-3.92243e-271
-2.25649e-271
-1.29721e-271
-7.44868e-272
-4.26956e-272
-2.44121e-272
-1.39116e-272
-7.89366e-273
-4.45494e-273
-2.49778e-273
-1.38948e-273
-7.65835e-274
-4.17595e-274
-2.24918e-274
-1.19458e-274
-6.24539e-275
-3.20811e-275
-1.61597e-275
-7.96559e-276
-3.83405e-276
-1.7978e-276
-8.19042e-277
-3.61114e-277
-1.52493e-277
-6.35458e-278
-2.61439e-278
-1.06249e-278
-4.26772e-279
-1.69525e-279
-6.66356e-280
-2.5936e-280
-1.00031e-280
-3.82581e-281
-1.45222e-281
-5.47578e-282
-2.05297e-282
-7.66117e-283
-2.84893e-283
-1.05704e-283
-3.91847e-284
-1.45355e-284
-5.40453e-285
-2.01801e-285
-7.58293e-286
-2.87422e-286
-1.10186e-286
-4.28519e-287
-1.69674e-287
-6.87301e-288
-2.87197e-288
-1.26328e-288
-6.19358e-289
-3.86851e-289
-3.56865e-289
-4.64072e-289
-7.11538e-289
-1.14335e-288
-1.83208e-288
-2.8617e-288
-4.28856e-288
-6.06468e-288
-7.92459e-288
-9.28461e-288
-2.73948e-267
-2.35819e-267
-1.823e-267
-1.30196e-267
-8.75698e-268
-5.62599e-268
-3.4901e-268
-2.1083e-268
-1.24838e-268
-7.28305e-269
-4.20297e-269
-2.4066e-269
-1.37045e-269
-7.7747e-270
-4.39962e-270
-2.48566e-270
-1.40286e-270
-7.91179e-271
-4.45939e-271
-2.5118e-271
-1.41352e-271
-7.94439e-272
-4.45685e-272
-2.49412e-272
-1.39116e-272
-7.72683e-273
-4.26899e-273
-2.34331e-273
-1.27627e-273
-6.88706e-274
-3.6765e-274
-1.9383e-274
-1.00745e-274
-5.15273e-275
-2.58826e-275
-1.27422e-275
-6.13484e-276
-2.88197e-276
-1.31757e-276
-5.84019e-277
-2.48594e-277
-1.04423e-277
-4.33079e-278
-1.7744e-278
-7.18626e-279
-2.87871e-279
-1.14137e-279
-4.48234e-280
-1.74486e-280
-6.73834e-281
-2.58383e-281
-9.84707e-282
-3.73361e-282
-1.40998e-282
-5.30988e-283
-1.99672e-283
-7.50823e-284
-2.8277e-284
-1.06847e-284
-4.0584e-285
-1.55288e-285
-5.99985e-286
-2.34695e-286
-9.32231e-287
-3.77329e-287
-1.56349e-287
-6.68443e-288
-3.00484e-288
-1.49754e-288
-9.37699e-289
-8.54546e-289
-1.09867e-288
-1.67673e-288
-2.68883e-288
-4.29682e-288
-6.6809e-288
-9.9477e-288
-1.39611e-287
-1.8107e-287
-2.1101e-287
-6.10672e-267
-5.27968e-267
-4.10655e-267
-2.95132e-267
-1.9956e-267
-1.2866e-267
-7.99106e-268
-4.82053e-268
-2.84272e-268
-1.6473e-268
-9.41888e-269
-5.33125e-269
-2.99487e-269
-1.67306e-269
-9.30885e-270
-5.16459e-270
-2.85955e-270
-1.58101e-270
-8.73193e-271
-4.81834e-271
-2.65644e-271
-1.46301e-271
-8.04642e-272
-4.4174e-272
-2.41921e-272
-1.32065e-272
-7.17989e-273
-3.88328e-273
-2.08692e-273
-1.11288e-273
-5.88012e-274
-3.07337e-274
-1.58627e-274
-8.07012e-275
-4.03899e-275
-1.98458e-275
-9.55309e-276
-4.49485e-276
-2.06201e-276
-9.1902e-277
-3.94467e-277
-1.67117e-277
-6.99159e-278
-2.8902e-278
-1.18125e-278
-4.7764e-279
-1.91212e-279
-7.58423e-280
-2.98294e-280
-1.16436e-280
-4.5149e-281
-1.74084e-281
-6.68168e-282
-2.55585e-282
-9.75558e-283
-3.72076e-283
-1.42009e-283
-5.43257e-284
-2.08675e-284
-8.06396e-285
-3.14169e-285
-1.2369e-285
-4.93384e-286
-1.99975e-286
-8.26369e-287
-3.49695e-287
-1.52672e-287
-6.99948e-288
-3.54077e-288
-2.2236e-288
-2.00543e-288
-2.55087e-288
-3.8739e-288
-6.19731e-288
-9.87573e-288
-1.52901e-287
-2.26375e-287
-3.15642e-287
-4.06814e-287
-4.71977e-287
-1.34335e-266
-1.16561e-266
-9.11282e-267
-6.58437e-267
-4.47273e-267
-2.89279e-267
-1.79893e-267
-1.08411e-267
-6.37156e-268
-3.67087e-268
-2.08191e-268
-1.16626e-268
-6.47091e-269
-3.5639e-269
-1.95181e-269
-1.0644e-269
-5.78628e-270
-3.13817e-270
-1.69901e-270
-9.18617e-271
-4.96127e-271
-2.67671e-271
-1.44251e-271
-7.76326e-272
-4.1706e-272
-2.23532e-272
-1.19441e-272
-6.35691e-273
-3.36637e-273
-1.7716e-273
-9.25246e-274
-4.78817e-274
-2.45119e-274
-1.23907e-274
-6.17305e-275
-3.02492e-275
-1.45488e-275
-6.85299e-276
-3.15366e-276
-1.41309e-276
-6.11625e-277
-2.61385e-277
-1.10348e-277
-4.60444e-278
-1.90012e-278
-7.7601e-279
-3.13871e-279
-1.25826e-279
-5.00363e-280
-1.97556e-280
-7.75182e-281
-3.02603e-281
-1.17647e-281
-4.56083e-282
-1.76532e-282
-6.83163e-283
-2.64727e-283
-1.02885e-283
-4.01752e-284
-1.57925e-284
-6.26243e-285
-2.51092e-285
-1.02052e-285
-4.21619e-286
-1.77642e-286
-7.66509e-287
-3.41126e-287
-1.59226e-287
-8.16799e-288
-5.15146e-288
-4.61256e-288
-5.81646e-288
-8.79471e-288
-1.40365e-287
-2.23087e-287
-3.44078e-287
-5.06905e-287
-7.02887e-287
-9.0116e-287
-1.04166e-286
-2.92236e-266
-2.5433e-266
-1.99693e-266
-1.4494e-266
-9.88479e-267
-6.41101e-267
-3.99153e-267
-2.40371e-267
-1.40873e-267
-8.07581e-268
-4.5475e-268
-2.52404e-268
-1.38483e-268
-7.52829e-269
-4.06289e-269
-2.1802e-269
-1.16476e-269
-6.20153e-270
-3.29332e-270
-1.74546e-270
-9.23679e-271
-4.88192e-271
-2.57737e-271
-1.35916e-271
-7.15801e-272
-3.76353e-272
-1.97449e-272
-1.03293e-272
-5.38346e-273
-2.79233e-273
-1.43962e-273
-7.36693e-274
-3.73593e-274
-1.87429e-274
-9.28527e-275
-4.53337e-275
-2.17683e-275
-1.02582e-275
-4.733e-276
-2.13127e-276
-9.29937e-277
-4.00848e-277
-1.70765e-277
-7.19336e-278
-2.99798e-278
-1.23702e-278
-5.05692e-279
-2.04974e-279
-8.24481e-280
-3.29406e-280
-1.30851e-280
-5.17334e-281
-2.03802e-281
-8.00966e-282
-3.14451e-282
-1.23491e-282
-4.85861e-283
-1.9182e-283
-7.6128e-284
-3.04291e-284
-1.22751e-284
-5.0087e-285
-2.0723e-285
-8.71735e-286
-3.73998e-286
-1.64306e-286
-7.44193e-287
-3.53135e-287
-1.83605e-287
-1.16516e-287
-1.04003e-287
-1.30422e-287
-1.96585e-287
-3.13152e-287
-4.96541e-287
-7.63298e-287
-1.11976e-286
-1.54542e-286
-1.97267e-286
-2.27326e-286
-6.29834e-266
-5.49498e-266
-4.33001e-266
-3.15479e-266
-2.15882e-266
-1.40356e-266
-8.74813e-267
-5.26526e-267
-3.07848e-267
-1.75721e-267
-9.83303e-268
-5.41307e-268
-2.94011e-268
-1.57948e-268
-8.40994e-269
-4.44575e-269
-2.33666e-269
-1.22254e-269
-6.37346e-270
-3.31344e-270
-1.7189e-270
-8.90236e-271
-4.60454e-271
-2.37893e-271
-1.22775e-271
-6.32877e-272
-3.25753e-272
-1.67345e-272
-8.57445e-273
-4.37819e-273
-2.22544e-273
-1.12467e-273
-5.64274e-274
-2.80615e-274
-1.38077e-274
-6.70962e-275
-3.21348e-275
-1.51372e-275
-6.99716e-276
-3.16443e-276
-1.39107e-276
-6.04544e-277
-2.59817e-277
-1.10474e-277
-4.6498e-278
-1.93847e-278
-8.01011e-279
-3.28326e-279
-1.33606e-279
-5.40255e-280
-2.17294e-280
-8.70227e-281
-3.47415e-281
-1.38427e-281
-5.5121e-282
-2.19656e-282
-8.77311e-283
-3.5176e-283
-1.41832e-283
-5.76169e-284
-2.36291e-284
-9.80418e-285
-4.12544e-285
-1.76505e-285
-7.70128e-286
-3.44007e-286
-1.5835e-286
-7.62975e-287
-4.01978e-287
-2.57266e-287
-2.3001e-287
-2.87952e-287
-4.3343e-287
-6.89584e-287
-1.09136e-286
-1.67295e-286
-2.44544e-286
-3.36181e-286
-4.27552e-286
-4.91457e-286
-1.34689e-265
-1.1775e-265
-9.30636e-266
-6.80222e-266
-4.66809e-266
-3.0413e-266
-1.89742e-266
-1.14151e-266
-6.66077e-267
-3.78789e-267
-2.10804e-267
-1.15207e-267
-6.20127e-268
-3.29597e-268
-1.73347e-268
-9.03813e-269
-4.67891e-269
-2.4082e-269
-1.23372e-269
-6.29689e-270
-3.2046e-270
-1.62722e-270
-8.24851e-271
-4.17571e-271
-2.11166e-271
-1.06686e-271
-5.38459e-272
-2.71435e-272
-1.36603e-272
-6.85905e-273
-3.4333e-273
-1.71135e-273
-8.48386e-274
-4.17672e-274
-2.03868e-274
-9.84809e-275
-4.69912e-275
-2.21035e-275
-1.02267e-275
-4.64091e-276
-2.05366e-276
-8.99213e-277
-3.8967e-277
-1.67178e-277
-7.10403e-278
-2.99173e-278
-1.24944e-278
-5.17844e-279
-2.13174e-279
-8.72382e-280
-3.55255e-280
-1.44109e-280
-5.82969e-281
-2.35467e-281
-9.50834e-282
-3.8439e-282
-1.55802e-282
-6.34162e-283
-2.59651e-283
-1.07135e-283
-4.46354e-284
-1.88169e-284
-8.04507e-285
-3.49712e-285
-1.55002e-285
-7.03112e-286
-3.2852e-286
-1.60572e-286
-8.57319e-287
-5.54788e-287
-4.99362e-287
-6.26814e-287
-9.44162e-287
-1.5016e-286
-2.37321e-286
-3.62952e-286
-5.28963e-286
-7.24801e-286
-9.18999e-286
-1.05416e-285
-2.86159e-265
-2.50595e-265
-1.98549e-265
-1.45512e-265
-1.001e-265
-6.53318e-266
-4.07935e-266
-2.45335e-266
-1.42909e-266
-8.10097e-267
-4.48682e-267
-2.43645e-267
-1.30101e-267
-6.84879e-268
-3.56219e-268
-1.83407e-268
-9.36327e-269
-4.74653e-269
-2.39222e-269
-1.19998e-269
-5.99653e-270
-2.98768e-270
-1.48517e-270
-7.37007e-271
-3.65275e-271
-1.80868e-271
-8.94899e-272
-4.42445e-272
-2.18548e-272
-1.07813e-272
-5.30851e-273
-2.60672e-273
-1.27518e-273
-6.20654e-274
-3.00108e-274
-1.43923e-274
-6.83318e-275
-3.20562e-275
-1.4828e-275
-6.74481e-276
-3.00115e-276
-1.32276e-276
-5.77534e-277
-2.49849e-277
-1.07136e-277
-4.55577e-278
-1.92226e-278
-8.05356e-279
-3.35294e-279
-1.38835e-279
-5.72295e-280
-2.3509e-280
-9.63427e-281
-3.94361e-281
-1.61438e-281
-6.61836e-282
-2.72117e-282
-1.12382e-282
-4.66975e-283
-1.95576e-283
-8.27161e-284
-3.53999e-284
-1.53641e-284
-6.77875e-285
-3.0488e-285
-1.40288e-285
-6.64631e-286
-3.2929e-286
-1.78232e-286
-1.16957e-286
-1.06552e-286
-1.34713e-286
-2.03519e-286
-3.23867e-286
-5.11422e-286
-7.8073e-286
-1.13504e-285
-1.55106e-285
-1.96171e-285
-2.24635e-285
-6.04685e-265
-5.30276e-265
-4.21008e-265
-3.09233e-265
-2.13155e-265
-1.39327e-265
-8.70585e-266
-5.23424e-266
-3.04451e-266
-1.72105e-266
-9.49268e-267
-5.12593e-267
-2.71782e-267
-1.41855e-267
-7.30488e-268
-3.71857e-268
-1.87446e-268
-9.37067e-269
-4.65195e-269
-2.29605e-269
-1.12789e-269
-5.5194e-270
-2.69288e-270
-1.31085e-270
-6.37049e-271
-3.09239e-271
-1.49998e-271
-7.27201e-272
-3.52398e-272
-1.70676e-272
-8.2591e-273
-3.99086e-273
-1.92408e-273
-9.24579e-274
-4.42249e-274
-2.10253e-274
-9.91834e-275
-4.63409e-275
-2.14015e-275
-9.74499e-276
-4.35428e-276
-1.92959e-276
-8.47994e-277
-3.69606e-277
-1.59812e-277
-6.8576e-278
-2.92179e-278
-1.23682e-278
-5.20543e-279
-2.18e-279
-9.0928e-280
-3.78102e-280
-1.56912e-280
-6.5064e-281
-2.699e-281
-1.12154e-281
-4.67516e-282
-1.95795e-282
-8.25144e-283
-3.50535e-283
-1.50385e-283
-6.52832e-284
-2.87373e-284
-1.28571e-284
-5.86211e-285
-2.73348e-285
-1.31192e-285
-6.58508e-286
-3.61556e-286
-2.41361e-286
-2.2379e-286
-2.86268e-286
-4.34733e-286
-6.92868e-286
-1.09376e-285
-1.66742e-285
-2.41932e-285
-3.29872e-285
-4.16347e-285
-4.76087e-285
-1.27204e-264
-1.11679e-264
-8.8817e-265
-6.53571e-265
-4.51265e-265
-2.95335e-265
-1.8465e-265
-1.1099e-265
-6.44767e-266
-3.63618e-266
-1.99836e-266
-1.07383e-266
-5.65829e-267
-2.93111e-267
-1.49605e-267
-7.53856e-268
-3.7568e-268
-1.85444e-268
-9.07986e-269
-4.41527e-269
-2.1347e-269
-1.02722e-269
-4.92417e-270
-2.35351e-270
-1.12237e-270
-5.34425e-271
-2.54221e-271
-1.20866e-271
-5.74521e-272
-2.73071e-272
-1.29775e-272
-6.16496e-273
-2.92595e-273
-1.3863e-273
-6.55015e-274
-3.08237e-274
-1.44247e-274
-6.70174e-275
-3.08535e-275
-1.4042e-275
-6.29083e-276
-2.79905e-276
-1.23663e-276
-5.42458e-277
-2.36288e-277
-1.02231e-277
-4.39501e-278
-1.8785e-278
-7.98758e-279
-3.38141e-279
-1.42636e-279
-6.00087e-280
-2.52058e-280
-1.05821e-280
-4.4458e-281
-1.8715e-281
-7.90477e-282
-3.35495e-282
-1.43304e-282
-6.17061e-283
-2.68329e-283
-1.1806e-283
-5.26652e-284
-2.38725e-284
-1.10243e-284
-5.20482e-285
-2.52869e-285
-1.28545e-285
-7.16635e-286
-4.8843e-286
-4.63484e-286
-6.02431e-286
-9.21515e-286
-1.47222e-285
-2.32439e-285
-3.54e-285
-5.1282e-285
-6.97962e-285
-8.79448e-285
-1.00448e-284
-2.66597e-264
-2.34281e-264
-1.86581e-264
-1.37507e-264
-9.50754e-265
-6.22878e-265
-3.89629e-265
-2.34148e-265
-1.35877e-265
-7.64716e-266
-4.18967e-266
-2.24181e-266
-1.17489e-266
-6.04599e-267
-3.06183e-267
-1.52896e-267
-7.542e-268
-3.68078e-268
-1.77984e-268
-8.53823e-269
-4.06835e-269
-1.92754e-269
-9.08979e-270
-4.27047e-270
-2.0005e-270
-9.35162e-271
-4.36545e-271
-2.03627e-271
-9.49582e-272
-4.42877e-272
-2.06624e-272
-9.64336e-273
-4.5012e-273
-2.10024e-273
-9.78863e-274
-4.55242e-274
-2.10997e-274
-9.73133e-275
-4.45839e-275
-2.02461e-275
-9.07807e-276
-4.04907e-276
-1.79578e-276
-7.9177e-277
-3.47037e-277
-1.51232e-277
-6.55429e-278
-2.82624e-278
-1.21321e-278
-5.18793e-279
-2.21169e-279
-9.4082e-280
-3.99727e-280
-1.69806e-280
-7.22066e-281
-3.07731e-281
-1.31617e-281
-5.65729e-282
-2.44749e-282
-1.06745e-282
-4.70146e-283
-2.09494e-283
-9.46277e-284
-4.34225e-284
-2.02934e-284
-9.69312e-285
-4.76406e-285
-2.45242e-285
-1.3901e-285
-9.71239e-286
-9.48484e-286
-1.25751e-285
-1.94091e-285
-3.11052e-285
-4.91369e-285
-7.4786e-285
-1.08204e-284
-1.47055e-284
-1.85038e-284
-2.11146e-284
-5.57032e-264
-4.89889e-264
-3.90594e-264
-2.88222e-264
-1.99511e-264
-1.3082e-264
-8.18653e-265
-4.91876e-265
-2.85175e-265
-1.60217e-265
-8.75445e-266
-4.66724e-266
-2.43456e-266
-1.24562e-266
-6.26494e-267
-3.10367e-267
-1.51717e-267
-7.32976e-268
-3.50485e-268
-1.66094e-268
-7.81036e-269
-3.64846e-269
-1.69483e-269
-7.83701e-270
-3.61063e-270
-1.65884e-270
-7.6063e-271
-3.48351e-271
-1.59453e-271
-7.2991e-272
-3.3429e-272
-1.53221e-272
-7.02883e-273
-3.2266e-273
-1.48154e-273
-6.79952e-274
-3.11603e-274
-1.4241e-274
-6.4808e-275
-2.93092e-275
-1.31274e-275
-5.85873e-276
-2.60403e-276
-1.15225e-276
-5.07491e-277
-2.22476e-277
-9.70918e-278
-4.21946e-278
-1.82684e-278
-7.88433e-279
-3.39429e-279
-1.45882e-279
-6.26488e-280
-2.69102e-280
-1.15741e-280
-4.99039e-281
-2.15978e-281
-9.3952e-282
-4.11387e-282
-1.81601e-282
-8.09514e-283
-3.65038e-283
-1.66834e-283
-7.74414e-284
-3.65996e-284
-1.7674e-284
-8.78323e-285
-4.57909e-285
-2.64376e-285
-1.90224e-285
-1.92217e-285
-2.60785e-285
-4.06679e-285
-6.54146e-285
-1.03425e-284
-1.57353e-284
-2.27451e-284
-3.08756e-284
-3.88075e-284
-4.42493e-284
-1.16094e-263
-1.02165e-263
-8.15338e-264
-6.02261e-264
-4.17287e-264
-2.7381e-264
-1.71402e-264
-1.02967e-264
-5.96505e-265
-3.34628e-265
-1.82429e-265
-9.69536e-266
-5.03694e-266
-2.56427e-266
-1.28205e-266
-6.30732e-267
-3.05881e-267
-1.46462e-267
-6.93421e-268
-3.25054e-268
-1.51055e-268
-6.96688e-269
-3.19252e-269
-1.45501e-269
-6.60173e-270
-2.98479e-270
-1.34592e-270
-6.05825e-271
-2.72424e-271
-1.22471e-271
-5.5079e-272
-2.47932e-272
-1.11743e-272
-5.04327e-273
-2.27908e-273
-1.03085e-273
-4.66367e-274
-2.10832e-274
-9.51197e-275
-4.27541e-275
-1.90875e-275
-8.50659e-276
-3.78195e-276
-1.67653e-276
-7.40798e-277
-3.26221e-277
-1.4317e-277
-6.26318e-278
-2.732e-278
-1.1888e-278
-5.16345e-279
-2.24016e-279
-9.71594e-280
-4.21655e-280
-1.8329e-280
-7.98939e-281
-3.49628e-281
-1.53808e-281
-6.81143e-282
-3.04108e-282
-1.37101e-282
-6.25189e-283
-2.88895e-283
-1.35553e-283
-6.47403e-284
-3.15877e-284
-1.58664e-284
-8.38059e-285
-4.94002e-285
-3.67928e-285
-3.86658e-285
-5.38142e-285
-8.48629e-285
-1.37052e-284
-2.16924e-284
-3.29981e-284
-4.7664e-284
-6.46421e-284
-8.11763e-284
-9.25025e-284
-2.41462e-263
-2.126e-263
-1.69797e-263
-1.25528e-263
-8.70414e-264
-5.71465e-264
-3.57826e-264
-2.14926e-264
-1.24427e-264
-6.97132e-265
-3.79319e-265
-2.01054e-265
-1.0409e-265
-5.27648e-266
-2.62452e-266
-1.28343e-266
-6.18118e-267
-2.93662e-267
-1.37828e-267
-6.39916e-268
-2.94273e-268
-1.34191e-268
-6.07463e-269
-2.73269e-269
-1.22283e-269
-5.44842e-270
-2.41938e-270
-1.07168e-270
-4.73952e-271
-2.09448e-271
-9.25627e-272
-4.09368e-272
-1.81285e-272
-8.04202e-273
-3.57444e-273
-1.59175e-273
-7.09947e-274
-3.16947e-274
-1.41496e-274
-6.30787e-275
-2.80078e-275
-1.2437e-275
-5.51926e-276
-2.44633e-276
-1.08247e-276
-4.78025e-277
-2.1065e-277
-9.26318e-278
-4.06562e-278
-1.7816e-278
-7.79853e-279
-3.41195e-279
-1.49311e-279
-6.54099e-280
-2.87123e-280
-1.2642e-280
-5.58958e-281
-2.48482e-281
-1.11209e-281
-5.01799e-282
-2.28627e-282
-1.05352e-282
-4.91868e-283
-2.33132e-283
-1.12448e-283
-5.54043e-284
-2.81217e-284
-1.50595e-284
-9.09034e-285
-7.04801e-285
-7.73824e-285
-1.10657e-284
-1.76532e-284
-2.86287e-284
-4.5368e-284
-6.90132e-284
-9.96332e-284
-1.35024e-283
-1.6944e-283
-1.92986e-283
-5.0137e-263
-4.41625e-263
-3.5293e-263
-2.61093e-263
-1.81156e-263
-1.18993e-263
-7.45238e-264
-4.47562e-264
-2.58962e-264
-1.44934e-264
-7.87316e-265
-4.16362e-265
-2.14926e-265
-1.0855e-265
-5.37549e-266
-2.61508e-266
-1.25195e-266
-5.90773e-267
-2.75178e-267
-1.26694e-267
-5.77278e-268
-2.60623e-268
-1.16713e-268
-5.18983e-269
-2.2938e-269
-1.00867e-269
-4.41723e-270
-1.92824e-270
-8.39815e-271
-3.65268e-271
-1.58791e-271
-6.90536e-272
-3.00623e-272