/*--------------------------------*- C++ -*----------------------------------*\
  =========                 |
  \\      /  F ield         | OpenFOAM: The Open Source CFD Toolbox
   \\    /   O peration     | Website:  https://openfoam.org
    \\  /    A nd           | Version:  11
     \\/     M anipulation  |
\*---------------------------------------------------------------------------*/
FoamFile
{
    format      ascii;
    class       volScalarField;
    location    "100";
    object      C;
}
// * * * * * * * * * * * * * * * * * * * * * * * * * * * * * * * * * * * * * //

dimensions      [0 0 0 1 0 0 0];

internalField   nonuniform List<scalar> 
440320
(
-2.49633e-235
-2.63649e-235
-2.60114e-235
-2.42828e-235
-2.17055e-235
-1.87569e-235
-1.5788e-235
-1.30168e-235
-1.0555e-235
-8.44171e-236
-6.67247e-236
-5.21957e-236
-4.04482e-236
-3.1072e-236
-2.36723e-236
-1.78906e-236
-1.34148e-236
-9.97998e-237
-7.366e-237
-5.39311e-237
-3.91633e-237
-2.82009e-237
-2.01323e-237
-1.4245e-237
-9.98754e-238
-6.93679e-238
-4.77131e-238
-3.24908e-238
-2.1897e-238
-1.46001e-238
-9.62743e-239
-6.27588e-239
-4.04257e-239
-2.57193e-239
-1.61533e-239
-1.00099e-239
-6.11663e-240
-3.68311e-240
-2.18362e-240
-1.27318e-240
-7.28889e-241
-4.11688e-241
-2.29705e-241
-1.26719e-241
-6.91583e-242
-3.73547e-242
-1.99735e-242
-1.0574e-242
-5.54297e-243
-2.87735e-243
-1.47918e-243
-7.53111e-244
-3.79813e-244
-1.8979e-244
-9.40315e-245
-4.62826e-245
-2.27573e-245
-1.1355e-245
-5.98901e-246
-3.63712e-246
-2.82559e-246
-2.85793e-246
-3.42768e-246
-4.42633e-246
-5.84978e-246
-7.75345e-246
-1.02312e-245
-1.3405e-245
-1.74177e-245
-2.24259e-245
-2.85861e-245
-3.60312e-245
-4.48273e-245
-5.49023e-245
-6.59355e-245
-7.72139e-245
-8.74977e-245
-9.49826e-245
-9.74864e-245
-9.30051e-245
-9.9202e-235
-9.01502e-235
-8.23226e-235
-7.41665e-235
-6.56679e-235
-5.71047e-235
-4.87889e-235
-4.0991e-235
-3.39068e-235
-2.76486e-235
-2.22531e-235
-1.76984e-235
-1.39227e-235
-1.0842e-235
-8.36284e-236
-6.39211e-236
-4.84286e-236
-3.63738e-236
-2.70842e-236
-1.99922e-236
-1.46274e-236
-1.06061e-236
-7.61969e-237
-5.42254e-237
-3.82154e-237
-2.66636e-237
-1.84125e-237
-1.258e-237
-8.50108e-238
-5.67975e-238
-3.75039e-238
-2.44641e-238
-1.57576e-238
-1.00171e-238
-6.28138e-239
-3.8831e-239
-2.36503e-239
-1.41811e-239
-8.36339e-240
-4.844e-240
-2.7475e-240
-1.53976e-240
-8.53232e-241
-4.67753e-241
-2.53788e-241
-1.36314e-241
-7.24922e-242
-3.81735e-242
-1.99054e-242
-1.02784e-242
-5.25586e-243
-2.66163e-243
-1.33504e-243
-6.6345e-244
-3.26916e-244
-1.60081e-244
-7.83951e-245
-3.90875e-245
-2.07692e-245
-1.28847e-245
-1.03188e-245
-1.06697e-245
-1.28862e-245
-1.65951e-245
-2.17727e-245
-2.85855e-245
-3.73104e-245
-4.82913e-245
-6.19051e-245
-7.85265e-245
-9.8483e-245
-1.21998e-244
-1.49119e-244
-1.79652e-244
-2.13104e-244
-2.48674e-244
-2.85303e-244
-3.21828e-244
-3.57548e-244
-3.94615e-244
-3.23077e-234
-2.82247e-234
-2.4453e-234
-2.11651e-234
-1.82231e-234
-1.55626e-234
-1.31601e-234
-1.1009e-234
-9.10714e-235
-7.44989e-235
-6.02755e-235
-4.82503e-235
-3.82291e-235
-2.99905e-235
-2.33029e-235
-1.79384e-235
-1.36829e-235
-1.03425e-235
-7.7469e-236
-5.74983e-236
-4.22812e-236
-3.07983e-236
-2.22175e-236
-1.58687e-236
-1.12187e-236
-7.84815e-237
-5.43089e-237
-3.71623e-237
-2.51361e-237
-1.67989e-237
-1.10884e-237
-7.22526e-238
-4.64537e-238
-2.94533e-238
-1.84052e-238
-1.13283e-238
-6.86282e-239
-4.08879e-239
-2.39313e-239
-1.37346e-239
-7.69815e-240
-4.26841e-240
-2.34215e-240
-1.2722e-240
-6.84193e-241
-3.64366e-241
-1.92159e-241
-1.00359e-241
-5.19069e-242
-2.65866e-242
-1.34857e-242
-6.77461e-243
-3.37094e-243
-1.66199e-243
-8.12701e-244
-3.95221e-244
-1.92633e-244
-9.6157e-245
-5.18658e-245
-3.33874e-245
-2.80683e-245
-3.00393e-245
-3.67806e-245
-4.74395e-245
-6.20164e-245
-8.09724e-245
-1.05038e-244
-1.35109e-244
-1.72183e-244
-2.17306e-244
-2.71515e-244
-3.358e-244
-4.11078e-244
-4.98219e-244
-5.98155e-244
-7.12103e-244
-8.41931e-244
-9.90596e-244
-1.16102e-243
-1.33104e-243
-8.76835e-234
-7.66285e-234
-6.50452e-234
-5.48366e-234
-4.60702e-234
-3.85393e-234
-3.20599e-234
-2.64929e-234
-2.17303e-234
-1.76823e-234
-1.42693e-234
-1.14175e-234
-9.05736e-235
-7.1231e-235
-5.55341e-235
-4.29198e-235
-3.28803e-235
-2.49664e-235
-1.87869e-235
-1.40075e-235
-1.03461e-235
-7.56832e-236
-5.48154e-236
-3.92966e-236
-2.78748e-236
-1.95578e-236
-1.3568e-236
-9.30304e-237
-6.30181e-237
-4.21541e-237
-2.78316e-237
-1.81275e-237
-1.16411e-237
-7.36629e-238
-4.59009e-238
-2.81453e-238
-1.69692e-238
-1.00506e-238
-5.84068e-239
-3.32298e-239
-1.84143e-239
-1.01034e-239
-5.48941e-240
-2.95382e-240
-1.57426e-240
-8.31022e-241
-4.34505e-241
-2.25014e-241
-1.1541e-241
-5.86257e-242
-2.9495e-242
-1.46978e-242
-7.25566e-243
-3.54986e-243
-1.72333e-243
-8.32882e-244
-4.04509e-244
-2.02557e-244
-1.11222e-244
-7.43762e-245
-6.53519e-245
-7.19364e-245
-8.90059e-245
-1.14956e-244
-1.49994e-244
-1.95342e-244
-2.52863e-244
-3.24897e-244
-4.14193e-244
-5.2389e-244
-6.57538e-244
-8.1918e-244
-1.01351e-243
-1.24615e-243
-1.52411e-243
-1.85626e-243
-2.25334e-243
-2.72477e-243
-3.25786e-243
-3.72897e-243
-2.14191e-233
-1.88867e-233
-1.59892e-233
-1.33166e-233
-1.10101e-233
-9.05854e-234
-7.41828e-234
-6.0449e-234
-4.89921e-234
-3.94752e-234
-3.16091e-234
-2.51442e-234
-1.9864e-234
-1.55804e-234
-1.213e-234
-9.37132e-235
-7.18276e-235
-5.46029e-235
-4.11576e-235
-3.07512e-235
-2.27673e-235
-1.66972e-235
-1.21255e-235
-8.71582e-236
-6.1986e-236
-4.35983e-236
-3.0314e-236
-2.08262e-236
-1.41304e-236
-9.46355e-237
-6.25272e-237
-4.07331e-237
-2.61467e-237
-1.65268e-237
-1.0279e-237
-6.28583e-238
-3.77618e-238
-2.22629e-238
-1.28632e-238
-7.26598e-239
-3.98834e-239
-2.16875e-239
-1.16831e-239
-6.23518e-240
-3.29671e-240
-1.72681e-240
-8.96034e-241
-4.60573e-241
-2.34505e-241
-1.1827e-241
-5.90862e-242
-2.92431e-242
-1.43414e-242
-6.97319e-243
-3.36633e-243
-1.61981e-243
-7.85425e-244
-3.95246e-244
-2.21015e-244
-1.52929e-244
-1.39261e-244
-1.5662e-244
-1.95475e-244
-2.53207e-244
-3.30849e-244
-4.31608e-244
-5.60245e-244
-7.22883e-244
-9.27029e-244
-1.18174e-243
-1.49788e-243
-1.88857e-243
-2.36974e-243
-2.96084e-243
-3.68552e-243
-4.57119e-243
-5.64433e-243
-6.90926e-243
-8.275e-243
-9.37709e-243
-4.87035e-233
-4.33624e-233
-3.68928e-233
-3.06429e-233
-2.51293e-233
-2.04464e-233
-1.65378e-233
-1.33072e-233
-1.06547e-233
-8.48851e-234
-6.72811e-234
-5.30421e-234
-4.15809e-234
-3.24024e-234
-2.50917e-234
-1.93021e-234
-1.47452e-234
-1.11816e-234
-8.41404e-235
-6.28021e-235
-4.64763e-235
-3.40868e-235
-2.4765e-235
-1.78149e-235
-1.26826e-235
-8.93074e-236
-6.2172e-236
-4.27653e-236
-2.90488e-236
-1.94737e-236
-1.28759e-236
-8.39133e-237
-5.38647e-237
-3.4031e-237
-2.11445e-237
-1.29092e-237
-7.73702e-238
-4.54713e-238
-2.61665e-238
-1.47038e-238
-8.01462e-239
-4.32895e-239
-2.31695e-239
-1.22879e-239
-6.45737e-240
-3.36226e-240
-1.73454e-240
-8.86539e-241
-4.4891e-241
-2.25204e-241
-1.11937e-241
-5.51348e-242
-2.69192e-242
-1.3037e-242
-6.27326e-243
-3.01257e-243
-1.46164e-243
-7.40173e-244
-4.20965e-244
-2.99596e-244
-2.80412e-244
-3.20689e-244
-4.03642e-244
-5.25598e-244
-6.90075e-244
-9.05219e-244
-1.18288e-243
-1.53854e-243
-1.99163e-243
-2.56627e-243
-3.29213e-243
-4.20557e-243
-5.35088e-243
-6.78116e-243
-8.55757e-243
-1.07429e-242
-1.33784e-242
-1.64145e-242
-1.95415e-242
-2.1907e-242
-1.05171e-232
-9.44207e-233
-8.09363e-233
-6.73877e-233
-5.51179e-233
-4.45635e-233
-3.57309e-233
-2.84605e-233
-2.25418e-233
-1.77624e-233
-1.39276e-233
-1.08673e-233
-8.43707e-234
-6.51623e-234
-5.0052e-234
-3.82236e-234
-2.90119e-234
-2.1877e-234
-1.63828e-234
-1.21783e-234
-8.98225e-235
-6.57003e-235
-4.76334e-235
-3.42123e-235
-2.43299e-235
-1.7121e-235
-1.19149e-235
-8.19506e-236
-5.56714e-236
-3.73282e-236
-2.46866e-236
-1.60911e-236
-1.03293e-236
-6.52469e-237
-4.05208e-237
-2.47183e-237
-1.47958e-237
-8.68009e-238
-4.98293e-238
-2.79117e-238
-1.51471e-238
-8.14657e-239
-4.34215e-239
-2.29357e-239
-1.20056e-239
-6.22741e-240
-3.20089e-240
-1.63029e-240
-8.22796e-241
-4.11509e-241
-2.03975e-241
-1.00226e-241
-4.88389e-242
-2.36199e-242
-1.13587e-242
-5.458e-243
-2.65559e-243
-1.35453e-243
-7.81839e-244
-5.68698e-244
-5.43302e-244
-6.29824e-244
-7.99782e-244
-1.04911e-243
-1.38779e-243
-1.83556e-243
-2.42077e-243
-3.18072e-243
-4.16299e-243
-5.42733e-243
-7.0479e-243
-9.11558e-243
-1.17396e-242
-1.50464e-242
-1.91718e-242
-2.42333e-242
-3.02586e-242
-3.70169e-242
-4.37002e-242
-4.85293e-242
-2.18571e-232
-1.97545e-232
-1.70643e-232
-1.42754e-232
-1.16849e-232
-9.42066e-233
-7.51107e-233
-5.93707e-233
-4.66001e-233
-3.63569e-233
-2.82124e-233
-2.17819e-233
-1.67343e-233
-1.27929e-233
-9.73033e-234
-7.3619e-234
-5.53911e-234
-4.14319e-234
-3.07974e-234
-2.27403e-234
-1.66719e-234
-1.21302e-234
-8.75409e-235
-6.26285e-235
-4.43908e-235
-3.11531e-235
-2.16328e-235
-1.48537e-235
-1.00775e-235
-6.75062e-236
-4.46145e-236
-2.90666e-236
-1.86523e-236
-1.17789e-236
-7.31303e-237
-4.45944e-237
-2.66798e-237
-1.56407e-237
-8.96983e-238
-5.01753e-238
-2.71761e-238
-1.45881e-238
-7.76096e-239
-4.09204e-239
-2.1383e-239
-1.1074e-239
-5.68383e-240
-2.8913e-240
-1.45774e-240
-7.28543e-241
-3.60989e-241
-1.77388e-241
-8.64883e-242
-4.18785e-242
-2.01796e-242
-9.7268e-243
-4.75543e-243
-2.44443e-243
-1.42819e-243
-1.05531e-243
-1.02306e-243
-1.19935e-243
-1.53717e-243
-2.03458e-243
-2.71688e-243
-3.62989e-243
-4.8387e-243
-6.4295e-243
-8.51312e-243
-1.12295e-242
-1.47522e-242
-1.92923e-242
-2.50979e-242
-3.24442e-242
-4.16011e-242
-5.27521e-242
-6.5816e-242
-8.01005e-242
-9.37654e-242
-1.03318e-241
-4.4132e-232
-4.00958e-232
-3.48809e-232
-2.93411e-232
-2.40784e-232
-1.94018e-232
-1.54179e-232
-1.21194e-232
-9.44308e-233
-7.30395e-233
-5.61364e-233
-4.28998e-233
-3.26107e-233
-2.46629e-233
-1.8558e-233
-1.38931e-233
-1.03462e-233
-7.66272e-234
-5.64262e-234
-4.12978e-234
-3.00294e-234
-2.16843e-234
-1.55419e-234
-1.10507e-234
-7.78999e-235
-5.44095e-235
-3.76277e-235
-2.5747e-235
-1.74181e-235
-1.16411e-235
-7.67958e-236
-4.99644e-236
-3.20308e-236
-2.02138e-236
-1.25448e-236
-7.64821e-237
-4.57549e-237
-2.68247e-237
-1.53855e-237
-8.6075e-238
-4.66281e-238
-2.50338e-238
-1.33207e-238
-7.02521e-239
-3.67232e-239
-1.90276e-239
-9.77256e-240
-4.97558e-240
-2.51152e-240
-1.25707e-240
-6.24056e-241
-3.07388e-241
-1.50314e-241
-7.30468e-242
-3.53536e-242
-1.71322e-242
-8.43082e-243
-4.36857e-243
-2.57705e-243
-1.9241e-243
-1.88386e-243
-2.22935e-243
-2.88492e-243
-3.85754e-243
-5.20699e-243
-7.03553e-243
-9.48764e-243
-1.27553e-242
-1.70864e-242
-2.27942e-242
-3.02657e-242
-3.9965e-242
-5.2423e-242
-6.82002e-242
-8.77906e-242
-1.1142e-241
-1.38659e-241
-1.67778e-241
-1.949e-241
-2.13408e-241
-8.71839e-232
-7.95311e-232
-6.96143e-232
-5.88789e-232
-4.8481e-232
-3.90962e-232
-3.10152e-232
-2.42835e-232
-1.88105e-232
-1.44418e-232
-1.10039e-232
-8.32868e-233
-6.26598e-233
-4.68776e-233
-3.4883e-233
-2.58215e-233
-1.9014e-233
-1.39268e-233
-1.01449e-233
-7.34776e-234
-5.28985e-234
-3.784e-234
-2.68837e-234
-1.89602e-234
-1.3267e-234
-9.20468e-235
-6.32798e-235
-4.30754e-235
-2.90114e-235
-1.93166e-235
-1.2704e-235
-8.24528e-236
-5.27611e-236
-3.32533e-236
-2.06212e-236
-1.25683e-236
-7.51979e-237
-4.41092e-237
-2.5322e-237
-1.4185e-237
-7.69872e-238
-4.14113e-238
-2.20779e-238
-1.16672e-238
-6.11189e-239
-3.17409e-239
-1.63432e-239
-8.34401e-240
-4.22483e-240
-2.12196e-240
-1.05754e-240
-5.23219e-241
-2.57143e-241
-1.25675e-241
-6.12183e-242
-2.98819e-242
-1.48227e-242
-7.74463e-243
-4.60384e-243
-3.45946e-243
-3.40898e-243
-4.06709e-243
-5.31535e-243
-7.18611e-243
-9.81354e-243
-1.34189e-242
-1.83134e-242
-2.4912e-242
-3.37511e-242
-4.55075e-242
-6.10112e-242
-8.12418e-242
-1.07288e-241
-1.40236e-241
-1.80931e-241
-2.29525e-241
-2.84704e-241
-3.42558e-241
-3.95308e-241
-4.30665e-241
-1.69425e-231
-1.55033e-231
-1.36414e-231
-1.15961e-231
-9.58243e-232
-7.7392e-232
-6.13531e-232
-4.79026e-232
-3.69326e-232
-2.81757e-232
-2.13025e-232
-1.59802e-232
-1.19043e-232
-8.8118e-233
-6.48418e-233
-4.74459e-233
-3.45276e-233
-2.49913e-233
-1.7991e-233
-1.288e-233
-9.16841e-234
-6.48742e-234
-4.56146e-234
-3.18574e-234
-2.20893e-234
-1.51976e-234
-1.03687e-234
-7.01011e-235
-4.69304e-235
-3.10857e-235
-2.03549e-235
-1.31637e-235
-8.39981e-236
-5.28322e-236
-3.27192e-236
-1.99293e-236
-1.19246e-236
-6.99973e-237
-4.02396e-237
-2.25899e-237
-1.22994e-237
-6.63726e-238
-3.55035e-238
-1.88268e-238
-9.89818e-239
-5.16006e-239
-2.66768e-239
-1.36794e-239
-6.959e-240
-3.51316e-240
-1.76071e-240
-8.76463e-241
-4.3366e-241
-2.13519e-241
-1.04855e-241
-5.16333e-242
-2.58483e-242
-1.36235e-242
-8.15265e-243
-6.15088e-243
-6.08734e-243
-7.31628e-243
-9.65863e-243
-1.32093e-242
-1.82585e-242
-2.52725e-242
-3.4906e-242
-4.80328e-242
-6.57831e-242
-8.9578e-242
-1.21146e-241
-1.62491e-241
-2.15774e-241
-2.83028e-241
-3.65616e-241
-4.63282e-241
-5.72701e-241
-6.85564e-241
-7.86721e-241
-8.53623e-241
-3.25221e-231
-2.98302e-231
-2.63628e-231
-2.25109e-231
-1.86662e-231
-1.51029e-231
-1.19721e-231
-9.32885e-232
-7.16518e-232
-5.43652e-232
-4.08192e-232
-3.03701e-232
-2.2414e-232
-1.64223e-232
-1.19522e-232
-8.64496e-233
-6.21608e-233
-4.44431e-233
-3.15993e-233
-2.23434e-233
-1.57108e-233
-1.09841e-233
-7.63398e-234
-5.2726e-234
-3.61759e-234
-2.4645e-234
-1.66615e-234
-1.11714e-234
-7.42328e-235
-4.8848e-235
-3.18048e-235
-2.0471e-235
-1.30126e-235
-8.16072e-236
-5.04382e-236
-3.06878e-236
-1.8358e-236
-1.07835e-236
-6.20916e-237
-3.49495e-237
-1.91065e-237
-1.03541e-237
-5.56265e-238
-2.96317e-238
-1.5653e-238
-8.20101e-239
-4.26228e-239
-2.19793e-239
-1.12486e-239
-5.71539e-240
-2.8843e-240
-1.44654e-240
-7.21523e-241
-3.58364e-241
-1.77644e-241
-8.83506e-242
-4.46803e-242
-2.37684e-242
-1.43166e-242
-1.08359e-242
-1.07616e-242
-1.3027e-242
-1.7375e-242
-2.40436e-242
-3.36434e-242
-4.71365e-242
-6.58722e-242
-9.16522e-242
-1.26806e-241
-1.74253e-241
-2.37508e-241
-3.20577e-241
-4.27648e-241
-5.62432e-241
-7.26996e-241
-9.19882e-241
-1.13346e-240
-1.35077e-240
-1.54287e-240
-1.66866e-240
-6.18632e-231
-5.6845e-231
-5.04204e-231
-4.32213e-231
-3.59527e-231
-2.91436e-231
-2.31078e-231
-1.798e-231
-1.37667e-231
-1.03961e-231
-7.75748e-232
-5.72836e-232
-4.19101e-232
-3.04085e-232
-2.18973e-232
-1.5659e-232
-1.11255e-232
-7.85627e-233
-5.51528e-233
-3.84989e-233
-2.67236e-233
-1.84462e-233
-1.26603e-233
-8.63827e-234
-5.85787e-234
-3.94663e-234
-2.64052e-234
-1.75346e-234
-1.15496e-234
-7.54049e-235
-4.87578e-235
-3.11977e-235
-1.97345e-235
-1.23287e-235
-7.59863e-236
-4.61522e-236
-2.75912e-236
-1.62142e-236
-9.35098e-237
-5.27844e-237
-2.89895e-237
-1.57855e-237
-8.52347e-238
-4.56443e-238
-2.4246e-238
-1.27777e-238
-6.68212e-239
-3.46843e-239
-1.78749e-239
-9.14974e-240
-4.65415e-240
-2.35398e-240
-1.18481e-240
-5.94181e-241
-2.97582e-241
-1.49606e-241
-7.64862e-242
-4.10939e-242
-2.49288e-242
-1.89378e-242
-1.8881e-242
-2.30266e-242
-3.10359e-242
-4.346e-242
-6.15557e-242
-8.72749e-242
-1.23351e-241
-1.73438e-241
-2.42253e-241
-3.35681e-241
-4.60744e-241
-6.2531e-241
-8.37359e-241
-1.10355e-240
-1.4268e-240
-1.8027e-240
-2.21476e-240
-2.62928e-240
-2.99164e-240
-3.22715e-240
-1.16897e-230
-1.07562e-230
-9.56918e-231
-8.2301e-231
-6.8652e-231
-5.57473e-231
-4.42196e-231
-3.43693e-231
-2.62464e-231
-1.97387e-231
-1.46473e-231
-1.07419e-231
-7.79563e-232
-5.60447e-232
-3.99497e-232
-2.82556e-232
-1.98413e-232
-1.38396e-232
-9.59258e-233
-6.60911e-233
-4.52731e-233
-3.08379e-233
-2.08879e-233
-1.40687e-233
-9.42099e-234
-6.27082e-234
-4.14756e-234
-2.72467e-234
-1.77688e-234
-1.14961e-234
-7.37368e-235
-4.68492e-235
-2.94591e-235
-1.83155e-235
-1.12474e-235
-6.81458e-236
-4.06894e-236
-2.3912e-236
-1.38088e-236
-7.81667e-237
-4.31346e-237
-2.36074e-237
-1.2816e-237
-6.90253e-238
-3.68884e-238
-1.95653e-238
-1.03013e-238
-5.38557e-239
-2.79672e-239
-1.4432e-239
-7.40434e-240
-3.77928e-240
-1.92071e-240
-9.73173e-241
-4.92704e-241
-2.50518e-241
-1.29549e-241
-7.0346e-242
-4.30259e-242
-3.2858e-242
-3.29342e-242
-4.05001e-242
-5.51803e-242
-7.81902e-242
-1.12074e-241
-1.60737e-241
-2.29641e-241
-3.26087e-241
-4.59495e-241
-6.41558e-241
-8.86107e-241
-1.20839e-240
-1.62344e-240
-2.14306e-240
-2.77099e-240
-3.49617e-240
-4.28435e-240
-5.06978e-240
-5.75022e-240
-6.18996e-240
-2.19834e-230
-2.02491e-230
-1.80588e-230
-1.55751e-230
-1.30235e-230
-1.05921e-230
-8.40545e-231
-6.52742e-231
-4.97358e-231
-3.72689e-231
-2.75187e-231
-2.00554e-231
-1.44463e-231
-1.0297e-231
-7.26974e-232
-5.08794e-232
-3.53258e-232
-2.43463e-232
-1.66644e-232
-1.13331e-232
-7.66061e-233
-5.14808e-233
-3.44013e-233
-2.28606e-233
-1.51073e-233
-9.92724e-234
-6.48523e-234
-4.21062e-234
-2.7159e-234
-1.73942e-234
-1.10548e-234
-6.96684e-235
-4.35022e-235
-2.68895e-235
-1.64372e-235
-9.92639e-236
-5.91544e-236
-3.47438e-236
-2.00819e-236
-1.13961e-236
-6.31782e-237
-3.47523e-237
-1.89696e-237
-1.02769e-237
-5.52669e-238
-2.95093e-238
-1.56476e-238
-8.24246e-239
-4.31462e-239
-2.24541e-239
-1.16239e-239
-5.98957e-240
-3.07472e-240
-1.57447e-240
-8.06046e-241
-4.1461e-241
-2.16943e-241
-1.19141e-241
-7.35812e-242
-5.66251e-242
-5.7192e-242
-7.1011e-242
-9.78445e-242
-1.40286e-241
-2.03419e-241
-2.94963e-241
-4.25709e-241
-6.10082e-241
-8.66665e-241
-1.21843e-240
-1.69232e-240
-2.31759e-240
-3.12234e-240
-4.12733e-240
-5.3366e-240
-6.72487e-240
-8.22291e-240
-9.70412e-240
-1.0978e-239
-1.17977e-239
-4.12013e-230
-3.7981e-230
-3.39409e-230
-2.9341e-230
-2.45844e-230
-2.00219e-230
-1.58951e-230
-1.23348e-230
-9.38039e-231
-7.00668e-231
-5.15066e-231
-3.73254e-231
-2.67031e-231
-1.88827e-231
-1.32122e-231
-9.15563e-232
-6.28865e-232
-4.2844e-232
-2.89705e-232
-1.94531e-232
-1.29774e-232
-8.60452e-233
-5.67194e-233
-3.71792e-233
-2.42377e-233
-1.57153e-233
-1.01338e-233
-6.49779e-234
-4.14178e-234
-2.62343e-234
-1.65043e-234
-1.03065e-234
-6.38403e-235
-3.91924e-235
-2.38255e-235
-1.4328e-235
-8.51484e-236
-4.99462e-236
-2.88764e-236
-1.64194e-236
-9.141e-237
-5.05207e-237
-2.7722e-237
-1.51049e-237
-8.17374e-238
-4.39355e-238
-2.34643e-238
-1.24545e-238
-6.57251e-239
-3.44999e-239
-1.80228e-239
-9.37653e-240
-4.86243e-240
-2.51657e-240
-1.30282e-240
-6.77975e-241
-3.59014e-241
-1.9954e-241
-1.24659e-241
-9.69661e-242
-9.89886e-242
-1.2431e-241
-1.73312e-241
-2.51397e-241
-3.68609e-241
-5.40069e-241
-7.86894e-241
-1.13731e-240
-1.62762e-240
-2.30254e-240
-3.21409e-240
-4.41801e-240
-5.96655e-240
-7.89611e-240
-1.02092e-239
-1.28513e-239
-1.56852e-239
-1.84692e-239
-2.08493e-239
-2.2376e-239
-7.70347e-230
-7.10571e-230
-6.36027e-230
-5.50885e-230
-4.62369e-230
-3.76995e-230
-2.99396e-230
-2.32192e-230
-1.76279e-230
-1.31301e-230
-9.61386e-231
-6.93145e-231
-4.92811e-231
-3.45956e-231
-2.40063e-231
-1.64825e-231
-1.12071e-231
-7.55233e-232
-5.04768e-232
-3.34812e-232
-2.20523e-232
-1.44298e-232
-9.38442e-233
-6.06792e-233
-3.90188e-233
-2.49566e-233
-1.58786e-233
-1.00496e-233
-6.32613e-234
-3.95985e-234
-2.46388e-234
-1.52319e-234
-9.35033e-235
-5.69558e-235
-3.43985e-235
-2.058e-235
-1.21851e-235
-7.13206e-236
-4.12118e-236
-2.34631e-236
-1.31087e-236
-7.27528e-237
-4.01132e-237
-2.19741e-237
-1.19614e-237
-6.47106e-238
-3.48011e-238
-1.86105e-238
-9.89992e-239
-5.24091e-239
-2.76263e-239
-1.45102e-239
-7.60037e-240
-3.97519e-240
-2.08073e-240
-1.09532e-240
-5.87032e-241
-3.30426e-241
-2.09229e-241
-1.65087e-241
-1.70943e-241
-2.17551e-241
-3.0707e-241
-4.50546e-241
-6.67649e-241
-9.87765e-241
-1.45189e-240
-2.1148e-240
-3.0469e-240
-4.33452e-240
-6.07743e-240
-8.3813e-240
-1.13429e-239
-1.50261e-239
-1.94273e-239
-2.44331e-239
-2.97753e-239
-3.49956e-239
-3.94369e-239
-4.22792e-239
-1.43792e-229
-1.32697e-229
-1.18934e-229
-1.03176e-229
-8.672e-230
-7.07751e-230
-5.62229e-230
-4.35788e-230
-3.30357e-230
-2.45455e-230
-1.7909e-230
-1.28533e-230
-9.08737e-231
-6.33731e-231
-4.36427e-231
-2.97103e-231
-2.00123e-231
-1.3349e-231
-8.82469e-232
-5.78573e-232
-3.76448e-232
-2.43216e-232
-1.56114e-232
-9.95986e-233
-6.31813e-233
-3.9864e-233
-2.50222e-233
-1.5627e-233
-9.71056e-234
-6.00339e-234
-3.69187e-234
-2.25764e-234
-1.37224e-234
-8.28574e-235
-4.96667e-235
-2.95321e-235
-1.74035e-235
-1.01545e-235
-5.859e-236
-3.33691e-236
-1.86925e-236
-1.04096e-236
-5.76309e-237
-3.17212e-237
-1.73605e-237
-9.44842e-238
-5.11479e-238
-2.75478e-238
-1.47669e-238
-7.88175e-239
-4.19104e-239
-2.22165e-239
-1.17506e-239
-6.20889e-240
-3.28487e-240
-1.74876e-240
-9.48561e-241
-5.41095e-241
-3.48045e-241
-2.79648e-241
-2.94836e-241
-3.81044e-241
-5.4479e-241
-8.08327e-241
-1.20989e-240
-1.80619e-240
-2.67631e-240
-3.92588e-240
-5.69043e-240
-8.13573e-240
-1.1452e-239
-1.58388e-239
-2.14752e-239
-2.84732e-239
-3.68128e-239
-4.6264e-239
-5.63082e-239
-6.60803e-239
-7.43618e-239
-7.96518e-239
-2.68088e-229
-2.47493e-229
-2.22063e-229
-1.92888e-229
-1.62312e-229
-1.32571e-229
-1.05335e-229
-8.16055e-230
-6.17816e-230
-4.58033e-230
-3.33154e-230
-2.38136e-230
-1.67522e-230
-1.16132e-230
-7.94282e-231
-5.36534e-231
-3.58297e-231
-2.36756e-231
-1.54929e-231
-1.00477e-231
-6.46277e-232
-4.12541e-232
-2.61502e-232
-1.64693e-232
-1.03104e-232
-6.41881e-233
-3.97523e-233
-2.4497e-233
-1.50238e-233
-9.17051e-234
-5.57106e-234
-3.36778e-234
-2.02531e-234
-1.21118e-234
-7.19883e-235
-4.24988e-235
-2.49014e-235
-1.44684e-235
-8.32688e-236
-4.73917e-236
-2.65893e-236
-1.48431e-236
-8.24405e-237
-4.55569e-237
-2.50492e-237
-1.37058e-237
-7.46389e-238
-4.04649e-238
-2.18468e-238
-1.17509e-238
-6.30018e-239
-3.36909e-239
-1.79852e-239
-9.59625e-240
-5.12932e-240
-2.76057e-240
-1.51538e-240
-8.76715e-241
-5.74237e-241
-4.71801e-241
-5.08436e-241
-6.68593e-241
-9.6866e-241
-1.45289e-240
-2.19512e-240
-3.30424e-240
-4.93188e-240
-7.2806e-240
-1.061e-239
-1.52365e-239
-2.15217e-239
-2.98407e-239
-4.05249e-239
-5.37714e-239
-6.95216e-239
-8.7318e-239
-1.06165e-238
-1.24437e-238
-1.39872e-238
-1.49717e-238
-4.99417e-229
-4.61186e-229
-4.14159e-229
-3.60121e-229
-3.03319e-229
-2.47897e-229
-1.96997e-229
-1.52548e-229
-1.15358e-229
-8.53592e-230
-6.1917e-230
-4.40995e-230
-3.08853e-230
-2.12974e-230
-1.44768e-230
-9.71078e-231
-6.43439e-231
-4.21536e-231
-2.73283e-231
-1.75466e-231
-1.11663e-231
-7.04798e-232
-4.4152e-232
-2.74683e-232
-1.69806e-232
-1.04359e-232
-6.3791e-233
-3.87976e-233
-2.34854e-233
-1.41525e-233
-8.49098e-234
-5.07199e-234
-3.0161e-234
-1.78509e-234
-1.05115e-234
-6.15528e-235
-3.58219e-235
-2.07033e-235
-1.18715e-235
-6.74392e-236
-3.78498e-236
-2.11558e-236
-1.17753e-236
-6.5264e-237
-3.60195e-237
-1.97969e-237
-1.08369e-237
-5.90958e-238
-3.21125e-238
-1.7395e-238
-9.3976e-239
-5.06662e-239
-2.72823e-239
-1.46908e-239
-7.92896e-240
-4.31215e-240
-2.39536e-240
-1.40673e-240
-9.40765e-241
-7.938e-241
-8.77603e-241
-1.1762e-240
-1.72718e-240
-2.61762e-240
-3.98933e-240
-6.05033e-240
-9.09007e-240
-1.34951e-239
-1.97604e-239
-2.84876e-239
-4.03609e-239
-5.60849e-239
-7.62721e-239
-1.01271e-238
-1.30939e-238
-1.64378e-238
-1.99691e-238
-2.33824e-238
-2.62583e-238
-2.80908e-238
-9.29815e-229
-8.58837e-229
-7.71803e-229
-6.71665e-229
-5.6615e-229
-4.62931e-229
-3.67913e-229
-2.84782e-229
-2.15136e-229
-1.58923e-229
-1.15003e-229
-8.16522e-230
-5.69623e-230
-3.90954e-230
-2.64298e-230
-1.76183e-230
-1.15925e-230
-7.53603e-231
-4.84452e-231
-3.08225e-231
-1.9424e-231
-1.21337e-231
-7.5186e-232
-4.62445e-232
-2.82509e-232
-1.71517e-232
-1.03541e-232
-6.21806e-233
-3.71635e-233
-2.21128e-233
-1.31024e-233
-7.73226e-234
-4.54505e-234
-2.66084e-234
-1.5512e-234
-9.00231e-235
-5.19855e-235
-2.98537e-235
-1.70354e-235
-9.64738e-236
-5.40911e-236
-3.02328e-236
-1.68427e-236
-9.3518e-237
-5.17501e-237
-2.85411e-237
-1.56896e-237
-8.59825e-238
-4.69859e-238
-2.56114e-238
-1.39316e-238
-7.56694e-239
-4.10705e-239
-2.23032e-239
-1.2147e-239
-6.67217e-240
-3.75033e-240
-2.238e-240
-1.5327e-240
-1.33393e-240
-1.51794e-240
-2.07601e-240
-3.08972e-240
-4.72885e-240
-7.26442e-240
-1.10922e-239
-1.67626e-239
-2.50104e-239
-3.67753e-239
-5.31977e-239
-7.55687e-239
-1.05209e-238
-1.43251e-238
-1.90316e-238
-2.46082e-238
-3.08808e-238
-3.74893e-238
-4.38616e-238
-4.92195e-238
-5.26305e-238
-1.73039e-228
-1.5986e-228
-1.43741e-228
-1.25176e-228
-1.05575e-228
-8.63596e-229
-6.86375e-229
-5.31087e-229
-4.00848e-229
-2.95679e-229
-2.1352e-229
-1.51186e-229
-1.05111e-229
-7.1846e-230
-4.83371e-230
-3.20447e-230
-2.09541e-230
-1.35282e-230
-8.63109e-231
-5.44652e-231
-3.40219e-231
-2.10535e-231
-1.29163e-231
-7.86159e-232
-4.75037e-232
-2.85145e-232
-1.70131e-232
-1.00953e-232
-5.96067e-233
-3.5035e-233
-2.05072e-233
-1.19575e-233
-6.94692e-234
-4.02173e-234
-2.32005e-234
-1.3335e-234
-7.6345e-235
-4.35198e-235
-2.46854e-235
-1.39187e-235
-7.78534e-236
-4.34527e-236
-2.41968e-236
-1.34418e-236
-7.44879e-237
-4.11751e-237
-2.27052e-237
-1.24913e-237
-6.85754e-238
-3.75782e-238
-2.05627e-238
-1.12418e-238
-6.14504e-239
-3.36268e-239
-1.84671e-239
-1.02397e-239
-5.82381e-240
-3.53578e-240
-2.48779e-240
-2.24269e-240
-2.63377e-240
-3.67829e-240
-5.54674e-240
-8.56756e-240
-1.32566e-239
-2.03642e-239
-3.09333e-239
-4.63559e-239
-6.84107e-239
-9.92522e-239
-1.41311e-238
-1.97059e-238
-2.68595e-238
-3.57025e-238
-4.61667e-238
-5.79172e-238
-7.02733e-238
-8.21642e-238
-9.21452e-238
-9.84951e-238
-3.21922e-228
-2.97451e-228
-2.67579e-228
-2.33144e-228
-1.96729e-228
-1.60971e-228
-1.2794e-228
-9.89604e-229
-7.46344e-229
-5.49836e-229
-3.96344e-229
-2.79975e-229
-1.94076e-229
-1.32182e-229
-8.85583e-230
-5.84262e-230
-3.79972e-230
-2.43827e-230
-1.54526e-230
-9.68028e-231
-5.99941e-231
-3.68139e-231
-2.23836e-231
-1.34953e-231
-8.07373e-232
-4.79619e-232
-2.83091e-232
-1.66122e-232
-9.69727e-233
-5.63406e-233
-3.25949e-233
-1.87852e-233
-1.07888e-233
-6.17628e-234
-3.52494e-234
-2.00571e-234
-1.13773e-234
-6.43241e-235
-3.62312e-235
-2.03155e-235
-1.13207e-235
-6.30075e-236
-3.50214e-236
-1.94379e-236
-1.07721e-236
-5.96031e-237
-3.29276e-237
-1.81637e-237
-1.00063e-237
-5.50635e-238
-3.02783e-238
-1.66451e-238
-9.15459e-239
-5.04346e-239
-2.79066e-239
-1.56111e-239
-8.98457e-240
-5.55783e-240
-4.03167e-240
-3.77926e-240
-4.58878e-240
-6.54482e-240
-9.99419e-240
-1.55679e-239
-2.42443e-239
-3.74418e-239
-5.71307e-239
-8.59405e-239
-1.27229e-238
-1.85056e-238
-2.6399e-238
-3.68653e-238
-5.02931e-238
-6.68812e-238
-8.64895e-238
-1.08478e-237
-1.31563e-237
-1.53744e-237
-1.72336e-237
-1.84158e-237
-5.98751e-228
-5.53307e-228
-4.97919e-228
-4.34026e-228
-3.66373e-228
-2.99847e-228
-2.38316e-228
-1.84278e-228
-1.38886e-228
-1.02208e-228
-7.35621e-229
-5.18585e-229
-3.58564e-229
-2.43462e-229
-1.62521e-229
-1.06775e-229
-6.91116e-230
-4.4114e-230
-2.77938e-230
-1.73002e-230
-1.06477e-230
-6.48509e-231
-3.91175e-231
-2.33856e-231
-1.38664e-231
-8.16047e-232
-4.76976e-232
-2.77069e-232
-1.60051e-232
-9.19942e-233
-5.26423e-233
-3.00056e-233
-1.70434e-233
-9.65085e-234
-5.44956e-234
-3.06927e-234
-1.72437e-234
-9.66342e-235
-5.40061e-235
-3.00832e-235
-1.66799e-235
-9.24515e-236
-5.12212e-236
-2.83639e-236
-1.56974e-236
-8.68186e-237
-4.79859e-237
-2.65063e-237
-1.46342e-237
-8.07707e-238
-4.45795e-238
-2.46151e-238
-1.36067e-238
-7.53939e-239
-4.19946e-239
-2.36868e-239
-1.37968e-239
-8.7111e-240
-6.5387e-240
-6.39462e-240
-8.03478e-240
-1.16974e-239
-1.80739e-239
-2.83697e-239
-4.4434e-239
-6.89418e-239
-1.05606e-238
-1.59383e-238
-2.36594e-238
-3.44876e-238
-4.928e-238
-6.89e-238
-9.40683e-238
-1.25143e-237
-1.61844e-237
-2.02953e-237
-2.46059e-237
-2.87422e-237
-3.22054e-237
-3.44067e-237
-1.11339e-227
-1.029e-227
-9.26258e-228
-8.07671e-228
-6.81973e-228
-5.58233e-228
-4.43668e-228
-3.42971e-228
-2.5834e-228
-1.89938e-228
-1.36525e-228
-9.60787e-229
-6.62872e-229
-4.48899e-229
-2.98726e-229
-1.95554e-229
-1.26058e-229
-8.00939e-230
-5.02067e-230
-3.10772e-230
-1.90114e-230
-1.15036e-230
-6.89046e-231
-4.08871e-231
-2.40531e-231
-1.40381e-231
-8.13389e-232
-4.68203e-232
-2.67913e-232
-1.52493e-232
-8.63904e-233
-4.87398e-233
-2.73991e-233
-1.53544e-233
-8.58137e-234
-4.78474e-234
-2.66224e-234
-1.47838e-234
-8.19339e-235
-4.53044e-235
-2.49677e-235
-1.37653e-235
-7.59206e-236
-4.18879e-236
-2.31182e-236
-1.27625e-236
-7.04748e-237
-3.89272e-237
-2.15096e-237
-1.18915e-237
-6.57923e-238
-3.64435e-238
-2.02235e-238
-1.12579e-238
-6.30641e-239
-3.58441e-239
-2.11356e-239
-1.36478e-239
-1.06391e-239
-1.08817e-239
-1.41472e-239
-2.10015e-239
-3.2802e-239
-5.18403e-239
-8.16026e-239
-1.27122e-238
-1.95382e-238
-2.95701e-238
-4.39963e-238
-6.42505e-238
-9.19383e-238
-1.28672e-237
-1.75789e-237
-2.33938e-237
-3.02567e-237
-3.79368e-237
-4.59817e-237
-5.36932e-237
-6.01443e-237
-6.42431e-237
-2.07e-227
-1.91328e-227
-1.72263e-227
-1.50248e-227
-1.26893e-227
-1.03881e-227
-8.25588e-228
-6.38051e-228
-4.80368e-228
-3.529e-228
-2.53378e-228
-1.78051e-228
-1.22616e-228
-8.28497e-229
-5.49874e-229
-3.58855e-229
-2.30514e-229
-1.45887e-229
-9.10491e-230
-5.60876e-230
-3.4132e-230
-2.05363e-230
-1.22262e-230
-7.20789e-231
-4.21108e-231
-2.43984e-231
-1.40287e-231
-8.01046e-232
-4.54536e-232
-2.56468e-232
-1.43987e-232
-8.04836e-233
-4.48162e-233
-2.48741e-233
-1.37679e-233
-7.60306e-234
-4.19063e-234
-2.30603e-234
-1.2671e-234
-6.95141e-235
-3.80495e-235
-2.08467e-235
-1.14335e-235
-6.27765e-236
-3.45065e-236
-1.89887e-236
-1.04611e-236
-5.7699e-237
-3.18636e-237
-1.76204e-237
-9.75939e-238
-5.41593e-238
-3.01335e-238
-1.68328e-238
-9.47344e-239
-5.4225e-239
-3.23802e-239
-2.1431e-239
-1.74094e-239
-1.86483e-239
-2.50578e-239
-3.78751e-239
-5.97332e-239
-9.49708e-239
-1.50146e-238
-2.3471e-238
-3.61774e-238
-5.48831e-238
-8.18181e-238
-1.1967e-237
-1.71444e-237
-2.40149e-237
-3.28267e-237
-4.36979e-237
-5.6521e-237
-7.08608e-237
-8.58689e-237
-1.00243e-236
-1.12259e-236
-1.19892e-236
-3.84789e-227
-3.55683e-227
-3.20298e-227
-2.79421e-227
-2.36026e-227
-1.9324e-227
-1.53569e-227
-1.18659e-227
-8.92963e-228
-6.55572e-228
-4.70251e-228
-3.30042e-228
-2.26931e-228
-1.53044e-228
-1.01347e-228
-6.59684e-229
-4.22493e-229
-2.66489e-229
-1.65698e-229
-1.01653e-229
-6.15835e-230
-3.68731e-230
-2.18376e-230
-1.28023e-230
-7.43501e-231
-4.28059e-231
-2.4449e-231
-1.38628e-231
-7.80854e-232
-4.37221e-232