/*--------------------------------*- C++ -*----------------------------------*\
  =========                 |
  \\      /  F ield         | OpenFOAM: The Open Source CFD Toolbox
   \\    /   O peration     | Website:  https://openfoam.org
    \\  /    A nd           | Version:  11
     \\/     M anipulation  |
\*---------------------------------------------------------------------------*/
FoamFile
{
    format      ascii;
    class       volScalarField;
    location    "20";
    object      C;
}
// * * * * * * * * * * * * * * * * * * * * * * * * * * * * * * * * * * * * * //

dimensions      [0 0 0 1 0 0 0];

internalField   nonuniform List<scalar> 
332800
(
6.23698e-12
6.2244e-12
6.20278e-12
6.17433e-12
6.14054e-12
6.10253e-12
6.06116e-12
6.01715e-12
5.97109e-12
5.9235e-12
5.87482e-12
5.82545e-12
5.77574e-12
5.726e-12
5.67649e-12
5.62749e-12
5.5792e-12
5.53182e-12
5.48555e-12
5.44054e-12
5.39693e-12
5.35487e-12
5.31446e-12
5.27582e-12
5.23904e-12
5.20421e-12
5.1714e-12
5.14069e-12
5.11213e-12
5.08578e-12
5.06169e-12
5.03989e-12
5.02044e-12
5.00334e-12
4.98864e-12
4.97636e-12
4.96651e-12
4.95912e-12
4.95418e-12
4.95171e-12
4.95171e-12
4.95418e-12
4.95912e-12
4.96651e-12
4.97636e-12
4.98864e-12
5.00334e-12
5.02044e-12
5.03989e-12
5.06169e-12
5.08578e-12
5.11213e-12
5.14069e-12
5.1714e-12
5.20421e-12
5.23904e-12
5.27582e-12
5.31446e-12
5.35487e-12
5.39693e-12
5.44054e-12
5.48555e-12
5.53182e-12
5.5792e-12
5.62749e-12
5.67649e-12
5.726e-12
5.77574e-12
5.82545e-12
5.87482e-12
5.9235e-12
5.97109e-12
6.01715e-12
6.06116e-12
6.10253e-12
6.14054e-12
6.17433e-12
6.20278e-12
6.2244e-12
6.23698e-12
1.87708e-11
1.8743e-11
1.86924e-11
1.86231e-11
1.85384e-11
1.84411e-11
1.83334e-11
1.82173e-11
1.80945e-11
1.79665e-11
1.78345e-11
1.76997e-11
1.75632e-11
1.74259e-11
1.72887e-11
1.71522e-11
1.70173e-11
1.68845e-11
1.67544e-11
1.66275e-11
1.65042e-11
1.6385e-11
1.62702e-11
1.61603e-11
1.60555e-11
1.5956e-11
1.58622e-11
1.57743e-11
1.56924e-11
1.56167e-11
1.55475e-11
1.54848e-11
1.54288e-11
1.53796e-11
1.53373e-11
1.53018e-11
1.52734e-11
1.52521e-11
1.52378e-11
1.52307e-11
1.52307e-11
1.52378e-11
1.52521e-11
1.52734e-11
1.53018e-11
1.53373e-11
1.53796e-11
1.54288e-11
1.54848e-11
1.55475e-11
1.56167e-11
1.56924e-11
1.57743e-11
1.58622e-11
1.5956e-11
1.60555e-11
1.61603e-11
1.62702e-11
1.6385e-11
1.65042e-11
1.66275e-11
1.67544e-11
1.68845e-11
1.70173e-11
1.71522e-11
1.72887e-11
1.74259e-11
1.75632e-11
1.76997e-11
1.78345e-11
1.79665e-11
1.80945e-11
1.82173e-11
1.83334e-11
1.84411e-11
1.85384e-11
1.86231e-11
1.86924e-11
1.8743e-11
1.87708e-11
3.14227e-11
3.13837e-11
3.13115e-11
3.1211e-11
3.10865e-11
3.09416e-11
3.07799e-11
3.0604e-11
3.04167e-11
3.02202e-11
3.00167e-11
2.98079e-11
2.95956e-11
2.93812e-11
2.91663e-11
2.8952e-11
2.87394e-11
2.85297e-11
2.83238e-11
2.81225e-11
2.79267e-11
2.7737e-11
2.75541e-11
2.73786e-11
2.7211e-11
2.70518e-11
2.69015e-11
2.67604e-11
2.6629e-11
2.65075e-11
2.63961e-11
2.62953e-11
2.62051e-11
2.61258e-11
2.60575e-11
2.60004e-11
2.59546e-11
2.59201e-11
2.58972e-11
2.58856e-11
2.58856e-11
2.58972e-11
2.59201e-11
2.59546e-11
2.60004e-11
2.60575e-11
2.61258e-11
2.62051e-11
2.62953e-11
2.63961e-11
2.65075e-11
2.6629e-11
2.67604e-11
2.69015e-11
2.70518e-11
2.7211e-11
2.73786e-11
2.75541e-11
2.7737e-11
2.79267e-11
2.81225e-11
2.83238e-11
2.85297e-11
2.87394e-11
2.8952e-11
2.91663e-11
2.93812e-11
2.95956e-11
2.98079e-11
3.00167e-11
3.02202e-11
3.04167e-11
3.0604e-11
3.07799e-11
3.09416e-11
3.10865e-11
3.1211e-11
3.13115e-11
3.13837e-11
3.14227e-11
4.42348e-11
4.41871e-11
4.40977e-11
4.3972e-11
4.38149e-11
4.36309e-11
4.3424e-11
4.31978e-11
4.29555e-11
4.27003e-11
4.24348e-11
4.21614e-11
4.18825e-11
4.16001e-11
4.13161e-11
4.10323e-11
4.07501e-11
4.04711e-11
4.01966e-11
3.99278e-11
3.96659e-11
3.94117e-11
3.91663e-11
3.89306e-11
3.87052e-11
3.84909e-11
3.82883e-11
3.8098e-11
3.79205e-11
3.77563e-11
3.76058e-11
3.74693e-11
3.73473e-11
3.72399e-11
3.71473e-11
3.707e-11
3.70078e-11
3.69611e-11
3.693e-11
3.69143e-11
3.69143e-11
3.693e-11
3.69611e-11
3.70078e-11
3.707e-11
3.71473e-11
3.72399e-11
3.73473e-11
3.74693e-11
3.76058e-11
3.77563e-11
3.79205e-11
3.8098e-11
3.82883e-11
3.84909e-11
3.87052e-11
3.89306e-11
3.91663e-11
3.94117e-11
3.96659e-11
3.99278e-11
4.01966e-11
4.04711e-11
4.07501e-11
4.10323e-11
4.13161e-11
4.16001e-11
4.18825e-11
4.21614e-11
4.24348e-11
4.27003e-11
4.29555e-11
4.31978e-11
4.3424e-11
4.36309e-11
4.38149e-11
4.3972e-11
4.40977e-11
4.41871e-11
4.42348e-11
5.72407e-11
5.71857e-11
5.7082e-11
5.69352e-11
5.67508e-11
5.65336e-11
5.62882e-11
5.60187e-11
5.5729e-11
5.54227e-11
5.51029e-11
5.47728e-11
5.4435e-11
5.40921e-11
5.37464e-11
5.34002e-11
5.30554e-11
5.27138e-11
5.23771e-11
5.20469e-11
5.17246e-11
5.14115e-11
5.11088e-11
5.08177e-11
5.05391e-11
5.02738e-11
5.00229e-11
4.9787e-11
4.95668e-11
4.9363e-11
4.9176e-11
4.90063e-11
4.88545e-11
4.87209e-11
4.86057e-11
4.85094e-11
4.8432e-11
4.83739e-11
4.8335e-11
4.83156e-11
4.83156e-11
4.8335e-11
4.83739e-11
4.8432e-11
4.85094e-11
4.86057e-11
4.87209e-11
4.88545e-11
4.90063e-11
4.9176e-11
4.93629e-11
4.95668e-11
4.9787e-11
5.00229e-11
5.02738e-11
5.05391e-11
5.08177e-11
5.11088e-11
5.14115e-11
5.17246e-11
5.20469e-11
5.23771e-11
5.27138e-11
5.30554e-11
5.34002e-11
5.37464e-11
5.40921e-11
5.4435e-11
5.47728e-11
5.51029e-11
5.54227e-11
5.5729e-11
5.60187e-11
5.62882e-11
5.65336e-11
5.67508e-11
5.69352e-11
5.7082e-11
5.71857e-11
5.72407e-11
7.04682e-11
7.0407e-11
7.02909e-11
7.0126e-11
6.99179e-11
6.9672e-11
6.93931e-11
6.90859e-11
6.87546e-11
6.84032e-11
6.80355e-11
6.76549e-11
6.72646e-11
6.68675e-11
6.64665e-11
6.6064e-11
6.56625e-11
6.52641e-11
6.48708e-11
6.44846e-11
6.41071e-11
6.374e-11
6.33847e-11
6.30425e-11
6.27147e-11
6.24025e-11
6.21068e-11
6.18286e-11
6.15688e-11
6.1328e-11
6.11071e-11
6.09066e-11
6.07271e-11
6.05689e-11
6.04327e-11
6.03186e-11
6.0227e-11
6.01581e-11
6.01121e-11
6.0089e-11
6.0089e-11
6.01121e-11
6.01581e-11
6.0227e-11
6.03186e-11
6.04327e-11
6.05689e-11
6.07271e-11
6.09066e-11
6.11071e-11
6.1328e-11
6.15688e-11
6.18286e-11
6.21068e-11
6.24025e-11
6.27147e-11
6.30425e-11
6.33847e-11
6.374e-11
6.41071e-11
6.44846e-11
6.48708e-11
6.52641e-11
6.56625e-11
6.6064e-11
6.64665e-11
6.68675e-11
6.72646e-11
6.76549e-11
6.80355e-11
6.84032e-11
6.87546e-11
6.90858e-11
6.93931e-11
6.9672e-11
6.99179e-11
7.0126e-11
7.02909e-11
7.0407e-11
7.04682e-11
8.39414e-11
8.38747e-11
8.37477e-11
8.35668e-11
8.33379e-11
8.30666e-11
8.2758e-11
8.24172e-11
8.20489e-11
8.16574e-11
8.12468e-11
8.08209e-11
8.03833e-11
7.99373e-11
7.94862e-11
7.90327e-11
7.85796e-11
7.81293e-11
7.76844e-11
7.72468e-11
7.68187e-11
7.64019e-11
7.5998e-11
7.56088e-11
7.52356e-11
7.48798e-11
7.45426e-11
7.42251e-11
7.39284e-11
7.36534e-11
7.34008e-11
7.31715e-11
7.29661e-11
7.27851e-11
7.26291e-11
7.24984e-11
7.23935e-11
7.23146e-11
7.22619e-11
7.22355e-11
7.22355e-11
7.22619e-11
7.23146e-11
7.23935e-11
7.24984e-11
7.26291e-11
7.27851e-11
7.29661e-11
7.31715e-11
7.34008e-11
7.36534e-11
7.39284e-11
7.42251e-11
7.45426e-11
7.48798e-11
7.52356e-11
7.56088e-11
7.5998e-11
7.64019e-11
7.68187e-11
7.72468e-11
7.76844e-11
7.81293e-11
7.85796e-11
7.90327e-11
7.94862e-11
7.99373e-11
8.03833e-11
8.08209e-11
8.12468e-11
8.16574e-11
8.20489e-11
8.24172e-11
8.2758e-11
8.30665e-11
8.33379e-11
8.35668e-11
8.37477e-11
8.38747e-11
8.39414e-11
9.76816e-11
9.76098e-11
9.74731e-11
9.72779e-11
9.70302e-11
9.6736e-11
9.64008e-11
9.60298e-11
9.5628e-11
9.52002e-11
9.47507e-11
9.42838e-11
9.38032e-11
9.33128e-11
9.28159e-11
9.23157e-11
9.18154e-11
9.13176e-11
9.08251e-11
9.03403e-11
8.98655e-11
8.94027e-11
8.8954e-11
8.85211e-11
8.81058e-11
8.77095e-11
8.73337e-11
8.69797e-11
8.66487e-11
8.63416e-11
8.60596e-11
8.58033e-11
8.55737e-11
8.53714e-11
8.51969e-11
8.50507e-11
8.49333e-11
8.4845e-11
8.4786e-11
8.47564e-11
8.47564e-11
8.4786e-11
8.4845e-11
8.49333e-11
8.50507e-11
8.51969e-11
8.53714e-11
8.55737e-11
8.58033e-11
8.60596e-11
8.63416e-11
8.66487e-11
8.69797e-11
8.73337e-11
8.77095e-11
8.81058e-11
8.85211e-11
8.8954e-11
8.94027e-11
8.98655e-11
9.03403e-11
9.08251e-11
9.13176e-11
9.18154e-11
9.23157e-11
9.28159e-11
9.33128e-11
9.38032e-11
9.42838e-11
9.47507e-11
9.52002e-11
9.5628e-11
9.60298e-11
9.64007e-11
9.6736e-11
9.70302e-11
9.72779e-11
9.74731e-11
9.76098e-11
9.76816e-11
1.11708e-10
1.11632e-10
1.11486e-10
1.11277e-10
1.11013e-10
1.10698e-10
1.10338e-10
1.09939e-10
1.09507e-10
1.09046e-10
1.08561e-10
1.08057e-10
1.07537e-10
1.07005e-10
1.06466e-10
1.05923e-10
1.05379e-10
1.04838e-10
1.04301e-10
1.03773e-10
1.03254e-10
1.02749e-10
1.02259e-10
1.01785e-10
1.01331e-10
1.00897e-10
1.00485e-10
1.00097e-10
9.97334e-11
9.93965e-11
9.90868e-11
9.88053e-11
9.8553e-11
9.83307e-11
9.81388e-11
9.79781e-11
9.7849e-11
9.77518e-11
9.76869e-11
9.76544e-11
9.76544e-11
9.76869e-11
9.77518e-11
9.7849e-11
9.79781e-11
9.81388e-11
9.83307e-11
9.8553e-11
9.88053e-11
9.90868e-11
9.93965e-11
9.97334e-11
1.00097e-10
1.00485e-10
1.00897e-10
1.01331e-10
1.01785e-10
1.02259e-10
1.02749e-10
1.03254e-10
1.03773e-10
1.04301e-10
1.04838e-10
1.05379e-10
1.05923e-10
1.06466e-10
1.07005e-10
1.07537e-10
1.08057e-10
1.08561e-10
1.09046e-10
1.09507e-10
1.09939e-10
1.10338e-10
1.10698e-10
1.11013e-10
1.11277e-10
1.11486e-10
1.11632e-10
1.11708e-10
1.26038e-10
1.25957e-10
1.25803e-10
1.25583e-10
1.25302e-10
1.24968e-10
1.24586e-10
1.24162e-10
1.23701e-10
1.23209e-10
1.22691e-10
1.22152e-10
1.21595e-10
1.21026e-10
1.20448e-10
1.19865e-10
1.19281e-10
1.18698e-10
1.18121e-10
1.17552e-10
1.16993e-10
1.16448e-10
1.15918e-10
1.15407e-10
1.14916e-10
1.14446e-10
1.14001e-10
1.13581e-10
1.13187e-10
1.12822e-10
1.12487e-10
1.12182e-10
1.11908e-10
1.11667e-10
1.11459e-10
1.11284e-10
1.11144e-10
1.11039e-10
1.10968e-10
1.10933e-10
1.10933e-10
1.10968e-10
1.11039e-10
1.11144e-10
1.11284e-10
1.11459e-10
1.11667e-10
1.11908e-10
1.12182e-10
1.12487e-10
1.12822e-10
1.13187e-10
1.13581e-10
1.14001e-10
1.14446e-10
1.14916e-10
1.15407e-10
1.15918e-10
1.16448e-10
1.16993e-10
1.17552e-10
1.18121e-10
1.18698e-10
1.19281e-10
1.19865e-10
1.20448e-10
1.21026e-10
1.21595e-10
1.22152e-10
1.22691e-10
1.23209e-10
1.23701e-10
1.24162e-10
1.24586e-10
1.24968e-10
1.25302e-10
1.25583e-10
1.25803e-10
1.25957e-10
1.26038e-10
1.40688e-10
1.40603e-10
1.40442e-10
1.4021e-10
1.39914e-10
1.39562e-10
1.39158e-10
1.3871e-10
1.38224e-10
1.37703e-10
1.37154e-10
1.36582e-10
1.35992e-10
1.35387e-10
1.34772e-10
1.34152e-10
1.3353e-10
1.32909e-10
1.32293e-10
1.31686e-10
1.31089e-10
1.30507e-10
1.29941e-10
1.29394e-10
1.28868e-10
1.28365e-10
1.27888e-10
1.27438e-10
1.27016e-10
1.26624e-10
1.26264e-10
1.25937e-10
1.25643e-10
1.25384e-10
1.2516e-10
1.24973e-10
1.24823e-10
1.24709e-10
1.24634e-10
1.24596e-10
1.24596e-10
1.24634e-10
1.24709e-10
1.24823e-10
1.24973e-10
1.2516e-10
1.25384e-10
1.25643e-10
1.25937e-10
1.26264e-10
1.26624e-10
1.27016e-10
1.27438e-10
1.27888e-10
1.28365e-10
1.28868e-10
1.29394e-10
1.29941e-10
1.30507e-10
1.31089e-10
1.31686e-10
1.32293e-10
1.32909e-10
1.3353e-10
1.34152e-10
1.34772e-10
1.35387e-10
1.35992e-10
1.36582e-10
1.37154e-10
1.37703e-10
1.38224e-10
1.3871e-10
1.39158e-10
1.39562e-10
1.39914e-10
1.4021e-10
1.40442e-10
1.40603e-10
1.40688e-10
1.55674e-10
1.55585e-10
1.55416e-10
1.55173e-10
1.54864e-10
1.54494e-10
1.54071e-10
1.536e-10
1.53088e-10
1.52541e-10
1.51963e-10
1.5136e-10
1.50737e-10
1.50099e-10
1.4945e-10
1.48795e-10
1.48137e-10
1.4748e-10
1.46828e-10
1.46184e-10
1.45552e-10
1.44934e-10
1.44333e-10
1.43753e-10
1.43194e-10
1.4266e-10
1.42153e-10
1.41674e-10
1.41225e-10
1.40809e-10
1.40425e-10
1.40077e-10
1.39764e-10
1.39488e-10
1.3925e-10
1.3905e-10
1.3889e-10
1.38769e-10
1.38688e-10
1.38648e-10
1.38648e-10
1.38688e-10
1.38769e-10
1.3889e-10
1.3905e-10
1.3925e-10
1.39488e-10
1.39764e-10
1.40077e-10
1.40425e-10
1.40809e-10
1.41225e-10
1.41674e-10
1.42153e-10
1.4266e-10
1.43194e-10
1.43753e-10
1.44334e-10
1.44934e-10
1.45552e-10
1.46184e-10
1.46828e-10
1.4748e-10
1.48137e-10
1.48795e-10
1.4945e-10
1.50099e-10
1.50737e-10
1.5136e-10
1.51963e-10
1.52541e-10
1.53088e-10
1.536e-10
1.54071e-10
1.54494e-10
1.54864e-10
1.55173e-10
1.55416e-10
1.55585e-10
1.55674e-10
1.7101e-10
1.70918e-10
1.70742e-10
1.70488e-10
1.70165e-10
1.69779e-10
1.69337e-10
1.68845e-10
1.68309e-10
1.67736e-10
1.6713e-10
1.66498e-10
1.65845e-10
1.65175e-10
1.64493e-10
1.63804e-10
1.63112e-10
1.62421e-10
1.61734e-10
1.61056e-10
1.6039e-10
1.59738e-10
1.59105e-10
1.58492e-10
1.57902e-10
1.57338e-10
1.56802e-10
1.56296e-10
1.55822e-10
1.55382e-10
1.54976e-10
1.54607e-10
1.54276e-10
1.53984e-10
1.53732e-10
1.53521e-10
1.53351e-10
1.53223e-10
1.53138e-10
1.53095e-10
1.53095e-10
1.53138e-10
1.53223e-10
1.53351e-10
1.53521e-10
1.53732e-10
1.53984e-10
1.54276e-10
1.54607e-10
1.54976e-10
1.55382e-10
1.55822e-10
1.56296e-10
1.56802e-10
1.57338e-10
1.57902e-10
1.58492e-10
1.59105e-10
1.59738e-10
1.6039e-10
1.61056e-10
1.61734e-10
1.62421e-10
1.63112e-10
1.63804e-10
1.64493e-10
1.65175e-10
1.65845e-10
1.66498e-10
1.6713e-10
1.67736e-10
1.68309e-10
1.68845e-10
1.69337e-10
1.69779e-10
1.70165e-10
1.70488e-10
1.70742e-10
1.70918e-10
1.7101e-10
1.86711e-10
1.86616e-10
1.86432e-10
1.86169e-10
1.85833e-10
1.85431e-10
1.8497e-10
1.84457e-10
1.83899e-10
1.833e-10
1.82668e-10
1.82008e-10
1.81325e-10
1.80625e-10
1.79911e-10
1.7919e-10
1.78466e-10
1.77742e-10
1.77022e-10
1.76311e-10
1.75612e-10
1.74929e-10
1.74264e-10
1.7362e-10
1.73001e-10
1.72408e-10
1.71845e-10
1.71313e-10
1.70814e-10
1.7035e-10
1.69924e-10
1.69536e-10
1.69187e-10
1.6888e-10
1.68615e-10
1.68392e-10
1.68213e-10
1.68078e-10
1.67988e-10
1.67943e-10
1.67943e-10
1.67988e-10
1.68078e-10
1.68213e-10
1.68392e-10
1.68615e-10
1.6888e-10
1.69187e-10
1.69536e-10
1.69924e-10
1.7035e-10
1.70814e-10
1.71313e-10
1.71845e-10
1.72408e-10
1.73001e-10
1.7362e-10
1.74264e-10
1.74929e-10
1.75612e-10
1.76311e-10
1.77022e-10
1.77742e-10
1.78466e-10
1.7919e-10
1.79912e-10
1.80625e-10
1.81325e-10
1.82008e-10
1.82668e-10
1.833e-10
1.83899e-10
1.84457e-10
1.8497e-10
1.85431e-10
1.85833e-10
1.86169e-10
1.86432e-10
1.86616e-10
1.86711e-10
2.02791e-10
2.02692e-10
2.02502e-10
2.02228e-10
2.0188e-10
2.01462e-10
2.00984e-10
2.00451e-10
1.9987e-10
1.99247e-10
1.9859e-10
1.97902e-10
1.97191e-10
1.96461e-10
1.95717e-10
1.94965e-10
1.94209e-10
1.93453e-10
1.92702e-10
1.91959e-10
1.91229e-10
1.90515e-10
1.89819e-10
1.89146e-10
1.88498e-10
1.87878e-10
1.87288e-10
1.86731e-10
1.86209e-10
1.85723e-10
1.85276e-10
1.84869e-10
1.84504e-10
1.84182e-10
1.83904e-10
1.8367e-10
1.83483e-10
1.83342e-10
1.83247e-10
1.832e-10
1.832e-10
1.83247e-10
1.83342e-10
1.83483e-10
1.8367e-10
1.83904e-10
1.84182e-10
1.84504e-10
1.84869e-10
1.85276e-10
1.85723e-10
1.86209e-10
1.86731e-10
1.87288e-10
1.87878e-10
1.88498e-10
1.89146e-10
1.89819e-10
1.90515e-10
1.91229e-10
1.91959e-10
1.92702e-10
1.93453e-10
1.94209e-10
1.94965e-10
1.95717e-10
1.96461e-10
1.97191e-10
1.97902e-10
1.9859e-10
1.99248e-10
1.9987e-10
2.00451e-10
2.00984e-10
2.01462e-10
2.0188e-10
2.02228e-10
2.02502e-10
2.02692e-10
2.02791e-10
2.19263e-10
2.1916e-10
2.18963e-10
2.18681e-10
2.18319e-10
2.17887e-10
2.17391e-10
2.16838e-10
2.16236e-10
2.1559e-10
2.14907e-10
2.14193e-10
2.13454e-10
2.12695e-10
2.11922e-10
2.1114e-10
2.10353e-10
2.09566e-10
2.08784e-10
2.08011e-10
2.0725e-10
2.06506e-10
2.05781e-10
2.05079e-10
2.04403e-10
2.03756e-10
2.03141e-10
2.02559e-10
2.02014e-10
2.01507e-10
2.01041e-10
2.00616e-10
2.00235e-10
1.99898e-10
1.99607e-10
1.99364e-10
1.99168e-10
1.9902e-10
1.98921e-10
1.98872e-10
1.98872e-10
1.98921e-10
1.9902e-10
1.99168e-10
1.99364e-10
1.99607e-10
1.99898e-10
2.00235e-10
2.00616e-10
2.01041e-10
2.01507e-10
2.02014e-10
2.02559e-10
2.03141e-10
2.03756e-10
2.04403e-10
2.05079e-10
2.05781e-10
2.06506e-10
2.0725e-10
2.08011e-10
2.08784e-10
2.09566e-10
2.10353e-10
2.1114e-10
2.11922e-10
2.12695e-10
2.13454e-10
2.14193e-10
2.14907e-10
2.1559e-10
2.16236e-10
2.16838e-10
2.17391e-10
2.17887e-10
2.18319e-10
2.18681e-10
2.18964e-10
2.1916e-10
2.19263e-10
2.3614e-10
2.36034e-10
2.35831e-10
2.35539e-10
2.35165e-10
2.34718e-10
2.34204e-10
2.33632e-10
2.33008e-10
2.32339e-10
2.31632e-10
2.30892e-10
2.30126e-10
2.29339e-10
2.28537e-10
2.27725e-10
2.26909e-10
2.26092e-10
2.2528e-10
2.24476e-10
2.23686e-10
2.22912e-10
2.22158e-10
2.21429e-10
2.20726e-10
2.20053e-10
2.19413e-10
2.18808e-10
2.1824e-10
2.17712e-10
2.17227e-10
2.16784e-10
2.16387e-10
2.16037e-10
2.15734e-10
2.1548e-10
2.15276e-10
2.15122e-10
2.15019e-10
2.14968e-10
2.14968e-10
2.15019e-10
2.15122e-10
2.15276e-10
2.1548e-10
2.15734e-10
2.16037e-10
2.16387e-10
2.16784e-10
2.17227e-10
2.17713e-10
2.1824e-10
2.18808e-10
2.19413e-10
2.20053e-10
2.20726e-10
2.21429e-10
2.22158e-10
2.22912e-10
2.23686e-10
2.24476e-10
2.2528e-10
2.26092e-10
2.26909e-10
2.27725e-10
2.28537e-10
2.29339e-10
2.30126e-10
2.30892e-10
2.31632e-10
2.32339e-10
2.33008e-10
2.33632e-10
2.34204e-10
2.34718e-10
2.35165e-10
2.35539e-10
2.35831e-10
2.36034e-10
2.3614e-10
2.53436e-10
2.53327e-10
2.53117e-10
2.52816e-10
2.5243e-10
2.51968e-10
2.51437e-10
2.50846e-10
2.50201e-10
2.49509e-10
2.48777e-10
2.48012e-10
2.47219e-10
2.46404e-10
2.45574e-10
2.44733e-10
2.43887e-10
2.43041e-10
2.42199e-10
2.41366e-10
2.40547e-10
2.39744e-10
2.38962e-10
2.38205e-10
2.37476e-10
2.36777e-10
2.36113e-10
2.35485e-10
2.34895e-10
2.34348e-10
2.33843e-10
2.33383e-10
2.32971e-10
2.32607e-10
2.32292e-10
2.32028e-10
2.31816e-10
2.31656e-10
2.31549e-10
2.31496e-10
2.31496e-10
2.31549e-10
2.31656e-10
2.31816e-10
2.32028e-10
2.32292e-10
2.32607e-10
2.32971e-10
2.33383e-10
2.33843e-10
2.34348e-10
2.34895e-10
2.35485e-10
2.36113e-10
2.36777e-10
2.37476e-10
2.38205e-10
2.38962e-10
2.39744e-10
2.40547e-10
2.41366e-10
2.42199e-10
2.43041e-10
2.43887e-10
2.44733e-10
2.45574e-10
2.46404e-10
2.47219e-10
2.48012e-10
2.48777e-10
2.49509e-10
2.50201e-10
2.50846e-10
2.51437e-10
2.51968e-10
2.5243e-10
2.52816e-10
2.53117e-10
2.53327e-10
2.53436e-10
2.71165e-10
2.71052e-10
2.70836e-10
2.70525e-10
2.70127e-10
2.6965e-10
2.69103e-10
2.68492e-10
2.67826e-10
2.67112e-10
2.66356e-10
2.65565e-10
2.64745e-10
2.63903e-10
2.63045e-10
2.62176e-10
2.61301e-10
2.60425e-10
2.59554e-10
2.58692e-10
2.57844e-10
2.57013e-10
2.56204e-10
2.55419e-10
2.54664e-10
2.5394e-10
2.53252e-10
2.52601e-10
2.5199e-10
2.51422e-10
2.50899e-10
2.50423e-10
2.49995e-10
2.49617e-10
2.49291e-10
2.49018e-10
2.48798e-10
2.48632e-10
2.48521e-10
2.48466e-10
2.48466e-10
2.48521e-10
2.48632e-10
2.48798e-10
2.49018e-10
2.49291e-10
2.49617e-10
2.49995e-10
2.50423e-10
2.50899e-10
2.51422e-10
2.5199e-10
2.52601e-10
2.53252e-10
2.5394e-10
2.54664e-10
2.55419e-10
2.56204e-10
2.57013e-10
2.57844e-10
2.58692e-10
2.59554e-10
2.60425e-10
2.61301e-10
2.62176e-10
2.63045e-10
2.63903e-10
2.64745e-10
2.65565e-10
2.66356e-10
2.67112e-10
2.67826e-10
2.68492e-10
2.69103e-10
2.6965e-10
2.70127e-10
2.70525e-10
2.70836e-10
2.71052e-10
2.71165e-10
2.89339e-10
2.89223e-10
2.89e-10
2.88679e-10
2.88269e-10
2.87778e-10
2.87213e-10
2.86584e-10
2.85897e-10
2.8516e-10
2.8438e-10
2.83564e-10
2.82718e-10
2.81849e-10
2.80962e-10
2.80064e-10
2.7916e-10
2.78256e-10
2.77356e-10
2.76465e-10
2.75588e-10
2.74729e-10
2.73893e-10
2.73082e-10
2.723e-10
2.71552e-10
2.7084e-10
2.70166e-10
2.69534e-10
2.68947e-10
2.68405e-10
2.67912e-10
2.6747e-10
2.67079e-10
2.66741e-10
2.66458e-10
2.6623e-10
2.66058e-10
2.65944e-10
2.65886e-10
2.65886e-10
2.65944e-10
2.66058e-10
2.6623e-10
2.66458e-10
2.66741e-10
2.67079e-10
2.6747e-10
2.67912e-10
2.68405e-10
2.68947e-10
2.69534e-10
2.70166e-10
2.7084e-10
2.71552e-10
2.723e-10
2.73082e-10
2.73893e-10
2.74729e-10
2.75588e-10
2.76465e-10
2.77356e-10
2.78256e-10
2.7916e-10
2.80064e-10
2.80962e-10
2.81849e-10
2.82718e-10
2.83564e-10
2.8438e-10
2.8516e-10
2.85897e-10
2.86584e-10
2.87213e-10
2.87778e-10
2.88269e-10
2.88679e-10
2.89e-10
2.89223e-10
2.89339e-10
3.07972e-10
3.07852e-10
3.07623e-10
3.07292e-10
3.0687e-10
3.06364e-10
3.05782e-10
3.05134e-10
3.04426e-10
3.03666e-10
3.02862e-10
3.02021e-10
3.01148e-10
3.00252e-10
2.99338e-10
2.98411e-10
2.97479e-10
2.96546e-10
2.95617e-10
2.94697e-10
2.93792e-10
2.92905e-10
2.92041e-10
2.91203e-10
2.90396e-10
2.89623e-10
2.88887e-10
2.88192e-10
2.87539e-10
2.86931e-10
2.86372e-10
2.85863e-10
2.85405e-10
2.85001e-10
2.84652e-10
2.84359e-10
2.84124e-10
2.83946e-10
2.83828e-10
2.83768e-10
2.83768e-10
2.83828e-10
2.83946e-10
2.84124e-10
2.84359e-10
2.84652e-10
2.85001e-10
2.85405e-10
2.85863e-10
2.86372e-10
2.86931e-10
2.87539e-10
2.88192e-10
2.88887e-10
2.89623e-10
2.90396e-10
2.91203e-10
2.92041e-10
2.92905e-10
2.93792e-10
2.94697e-10
2.95617e-10
2.96546e-10
2.97479e-10
2.98411e-10
2.99338e-10
3.00252e-10
3.01148e-10
3.02021e-10
3.02862e-10
3.03666e-10
3.04426e-10
3.05134e-10
3.05782e-10
3.06364e-10
3.0687e-10
3.07292e-10
3.07623e-10
3.07852e-10
3.07972e-10
3.27076e-10
3.26954e-10
3.26718e-10
3.26377e-10
3.25943e-10
3.25422e-10
3.24823e-10
3.24155e-10
3.23426e-10
3.22644e-10
3.21816e-10
3.20949e-10
3.2005e-10
3.19126e-10
3.18184e-10
3.17229e-10
3.16268e-10
3.15306e-10
3.14348e-10
3.134e-10
3.12466e-10
3.11552e-10
3.1066e-10
3.09796e-10
3.08964e-10
3.08166e-10
3.07406e-10
3.06688e-10
3.06015e-10
3.05388e-10
3.0481e-10
3.04284e-10
3.03812e-10
3.03395e-10
3.03034e-10
3.02732e-10
3.02489e-10
3.02306e-10
3.02183e-10
3.02122e-10
3.02122e-10
3.02183e-10
3.02306e-10
3.02489e-10
3.02732e-10
3.03034e-10
3.03395e-10
3.03812e-10
3.04284e-10
3.0481e-10
3.05388e-10
3.06015e-10
3.06688e-10
3.07406e-10
3.08166e-10
3.08964e-10
3.09796e-10
3.1066e-10
3.11552e-10
3.12466e-10
3.134e-10
3.14348e-10
3.15306e-10
3.16268e-10
3.17229e-10
3.18184e-10
3.19126e-10
3.2005e-10
3.20949e-10
3.21816e-10
3.22644e-10
3.23426e-10
3.24155e-10
3.24823e-10
3.25422e-10
3.25943e-10
3.26377e-10
3.26718e-10
3.26954e-10
3.27076e-10
3.46667e-10
3.46541e-10
3.46298e-10
3.45948e-10
3.45501e-10
3.44965e-10
3.44349e-10
3.43662e-10
3.42912e-10
3.42106e-10
3.41254e-10
3.40361e-10
3.39436e-10
3.38485e-10
3.37514e-10
3.36531e-10
3.35541e-10
3.3455e-10
3.33563e-10
3.32586e-10
3.31624e-10
3.30681e-10
3.29762e-10
3.28872e-10
3.28014e-10
3.27191e-10
3.26408e-10
3.25668e-10
3.24973e-10
3.24327e-10
3.23731e-10
3.23189e-10
3.22701e-10
3.22271e-10
3.21899e-10
3.21588e-10
3.21337e-10
3.21148e-10
3.21022e-10
3.20958e-10
3.20958e-10
3.21022e-10
3.21148e-10
3.21337e-10
3.21588e-10
3.21899e-10
3.22271e-10
3.22701e-10
3.23189e-10
3.23731e-10
3.24327e-10
3.24973e-10
3.25668e-10
3.26408e-10
3.27191e-10
3.28014e-10
3.28872e-10
3.29762e-10
3.30681e-10
3.31624e-10
3.32586e-10
3.33563e-10
3.3455e-10
3.35541e-10
3.36531e-10
3.37514e-10
3.38485e-10
3.39436e-10
3.40361e-10
3.41254e-10
3.42106e-10
3.42912e-10
3.43662e-10
3.44349e-10
3.44965e-10
3.45501e-10
3.45948e-10
3.46298e-10
3.46541e-10
3.46667e-10
3.66757e-10
3.66627e-10
3.66377e-10
3.66018e-10
3.65558e-10
3.65006e-10
3.64373e-10
3.63666e-10
3.62895e-10
3.62066e-10
3.61189e-10
3.60271e-10
3.59319e-10
3.5834e-10
3.57341e-10
3.56329e-10
3.5531e-10
3.54289e-10
3.53273e-10
3.52268e-10
3.51277e-10
3.50306e-10
3.4936e-10
3.48443e-10
3.47558e-10
3.46711e-10
3.45905e-10
3.45142e-10
3.44426e-10
3.4376e-10
3.43146e-10
3.42587e-10
3.42085e-10
3.41642e-10
3.41259e-10
3.40937e-10
3.40679e-10
3.40484e-10
3.40354e-10
3.40289e-10
3.40289e-10
3.40354e-10
3.40484e-10
3.40679e-10
3.40937e-10
3.41259e-10
3.41642e-10
3.42085e-10
3.42587e-10
3.43146e-10
3.4376e-10
3.44426e-10
3.45142e-10
3.45905e-10
3.46711e-10
3.47558e-10
3.48443e-10
3.4936e-10
3.50306e-10
3.51277e-10
3.52268e-10
3.53273e-10
3.54289e-10
3.5531e-10
3.56329e-10
3.57341e-10
3.5834e-10
3.59319e-10
3.60271e-10
3.61189e-10
3.62066e-10
3.62895e-10
3.63666e-10
3.64373e-10
3.65006e-10
3.65558e-10
3.66018e-10
3.66377e-10
3.66627e-10
3.66757e-10
3.8736e-10
3.87226e-10
3.8697e-10
3.866e-10
3.86127e-10
3.85561e-10
3.8491e-10
3.84183e-10
3.8339e-10
3.82538e-10
3.81636e-10
3.80692e-10
3.79712e-10
3.78706e-10
3.77678e-10
3.76637e-10
3.75588e-10
3.74538e-10
3.73493e-10
3.72458e-10
3.71438e-10
3.70439e-10
3.69465e-10
3.68521e-10
3.67611e-10
3.66739e-10
3.65908e-10
3.65123e-10
3.64386e-10
3.637e-10
3.63068e-10
3.62493e-10
3.61976e-10
3.61519e-10
3.61125e-10
3.60794e-10
3.60527e-10
3.60327e-10
3.60193e-10
3.60126e-10
3.60126e-10
3.60193e-10
3.60327e-10
3.60527e-10
3.60794e-10
3.61125e-10
3.61519e-10
3.61976e-10
3.62493e-10
3.63068e-10
3.637e-10
3.64386e-10
3.65123e-10
3.65908e-10
3.66739e-10
3.67611e-10
3.68521e-10
3.69465e-10
3.70439e-10
3.71438e-10
3.72458e-10
3.73493e-10
3.74538e-10
3.75588e-10
3.76637e-10
3.77678e-10
3.78706e-10
3.79712e-10
3.80692e-10
3.81636e-10
3.82538e-10
3.8339e-10
3.84183e-10
3.8491e-10
3.85561e-10
3.86127e-10
3.866e-10
3.8697e-10
3.87226e-10
3.8736e-10
4.0849e-10
4.08353e-10
4.0809e-10
4.0771e-10
4.07224e-10
4.06642e-10
4.05973e-10
4.05226e-10
4.04411e-10
4.03535e-10
4.02608e-10
4.01637e-10
4.0063e-10
3.99595e-10
3.98539e-10
3.97468e-10
3.96389e-10
3.9531e-10
3.94235e-10
3.9317e-10
3.92121e-10
3.91093e-10
3.90091e-10
3.8912e-10
3.88184e-10
3.87286e-10
3.86432e-10
3.85624e-10
3.84865e-10
3.8416e-10
3.83509e-10
3.82917e-10
3.82385e-10
3.81915e-10
3.81509e-10
3.81168e-10
3.80894e-10
3.80688e-10
3.8055e-10
3.80481e-10
3.80481e-10
3.8055e-10
3.80688e-10
3.80894e-10
3.81168e-10
3.81509e-10
3.81915e-10
3.82385e-10
3.82917e-10
3.83509e-10
3.8416e-10
3.84865e-10
3.85624e-10
3.86432e-10
3.87286e-10
3.88184e-10
3.8912e-10
3.90091e-10
3.91093e-10
3.92121e-10
3.9317e-10
3.94235e-10
3.9531e-10
3.96389e-10
3.97468e-10
3.98539e-10
3.99595e-10
4.0063e-10
4.01637e-10
4.02608e-10
4.03535e-10
4.04411e-10
4.05226e-10
4.05973e-10
4.06642e-10
4.07224e-10
4.0771e-10
4.0809e-10
4.08353e-10
4.0849e-10
4.30163e-10
4.30022e-10
4.29751e-10
4.29361e-10
4.28862e-10
4.28264e-10
4.27577e-10
4.26809e-10
4.25971e-10
4.25072e-10
4.24119e-10
4.23121e-10
4.22086e-10
4.21022e-10
4.19937e-10
4.18836e-10
4.17727e-10
4.16617e-10
4.15512e-10
4.14417e-10
4.13339e-10
4.12282e-10
4.11252e-10
4.10253e-10
4.0929e-10
4.08367e-10
4.07488e-10
4.06657e-10
4.05877e-10
4.05151e-10
4.04483e-10
4.03873e-10
4.03326e-10
4.02842e-10
4.02425e-10
4.02074e-10
4.01792e-10
4.0158e-10
4.01438e-10
4.01367e-10
4.01367e-10
4.01438e-10
4.0158e-10
4.01792e-10
4.02074e-10
4.02425e-10
4.02842e-10
4.03326e-10
4.03873e-10
4.04483e-10
4.05151e-10
4.05877e-10
4.06657e-10
4.07488e-10
4.08367e-10
4.0929e-10
4.10253e-10
4.11252e-10
4.12282e-10
4.13339e-10
4.14417e-10
4.15512e-10
4.16617e-10
4.17727e-10
4.18836e-10
4.19937e-10
4.21022e-10
4.22086e-10
4.23121e-10
4.24119e-10
4.25072e-10
4.25971e-10
4.26809e-10
4.27577e-10
4.28264e-10
4.28862e-10
4.29361e-10
4.29751e-10
4.30022e-10
4.30163e-10
4.52392e-10
4.52247e-10
4.51969e-10
4.51569e-10
4.51056e-10
4.50442e-10
4.49735e-10
4.48947e-10
4.48087e-10
4.47162e-10
4.46183e-10
4.45158e-10
4.44095e-10
4.43002e-10
4.41886e-10
4.40755e-10
4.39616e-10
4.38475e-10
4.37339e-10
4.36214e-10
4.35106e-10
4.34019e-10
4.3296e-10
4.31934e-10
4.30944e-10
4.29995e-10
4.29092e-10
4.28237e-10
4.27435e-10
4.26689e-10
4.26001e-10
4.25375e-10
4.24812e-10
4.24315e-10
4.23885e-10
4.23525e-10
4.23235e-10
4.23017e-10
4.22871e-10
4.22798e-10
4.22798e-10
4.22871e-10
4.23017e-10
4.23235e-10
4.23525e-10
4.23885e-10
4.24315e-10
4.24812e-10
4.25375e-10
4.26001e-10
4.26689e-10
4.27435e-10
4.28237e-10
4.29092e-10
4.29995e-10
4.30944e-10
4.31934e-10
4.3296e-10
4.34019e-10
4.35106e-10
4.36214e-10
4.37339e-10
4.38475e-10
4.39616e-10
4.40755e-10
4.41886e-10
4.43002e-10
4.44095e-10
4.45158e-10
4.46183e-10
4.47162e-10
4.48087e-10
4.48947e-10
4.49735e-10
4.50442e-10
4.51056e-10
4.51569e-10
4.51969e-10
4.52247e-10
4.52392e-10
4.75192e-10
4.75044e-10
4.74758e-10
4.74347e-10
4.7382e-10
4.7319e-10
4.72464e-10
4.71655e-10
4.70771e-10
4.69822e-10
4.68816e-10
4.67763e-10
4.66671e-10
4.65548e-10
4.64402e-10
4.6324e-10
4.6207e-10
4.60898e-10
4.5973e-10
4.58574e-10
4.57435e-10
4.56319e-10
4.55231e-10
4.54176e-10
4.53159e-10
4.52184e-10
4.51255e-10
4.50377e-10
4.49553e-10
4.48786e-10
4.48079e-10
4.47435e-10
4.46856e-10
4.46346e-10
4.45904e-10
4.45534e-10
4.45236e-10
4.45011e-10
4.44861e-10
4.44786e-10
4.44786e-10
4.44861e-10
4.45011e-10
4.45236e-10
4.45534e-10
4.45904e-10
4.46346e-10
4.46856e-10
4.47435e-10
4.48079e-10
4.48786e-10
4.49553e-10
4.50377e-10
4.51255e-10
4.52184e-10
4.53159e-10
4.54176e-10
4.55231e-10
4.56319e-10
4.57435e-10
4.58574e-10
4.5973e-10
4.60898e-10
4.6207e-10
4.6324e-10
4.64402e-10
4.65548e-10
4.66671e-10
4.67763e-10
4.68816e-10
4.69822e-10
4.70771e-10
4.71655e-10
4.72464e-10
4.7319e-10
4.7382e-10
4.74347e-10
4.74758e-10
4.75044e-10
4.75192e-10
4.98579e-10
4.98427e-10
4.98134e-10
4.97711e-10
4.97171e-10
4.96523e-10
4.95779e-10
4.94947e-10
4.9404e-10
4.93065e-10
4.92032e-10
4.90951e-10
4.89829e-10
4.88676e-10
4.87499e-10
4.86305e-10
4.85103e-10
4.83899e-10
4.827e-10
4.81513e-10
4.80343e-10
4.79196e-10
4.78078e-10
4.76994e-10
4.75949e-10
4.74948e-10
4.73994e-10
4.73091e-10
4.72244e-10
4.71456e-10
4.7073e-10
4.70068e-10
4.69474e-10
4.68949e-10
4.68495e-10
4.68115e-10
4.67808e-10
4.67578e-10
4.67424e-10
4.67346e-10
4.67346e-10
4.67424e-10
4.67578e-10
4.67808e-10
4.68115e-10
4.68495e-10
4.68949e-10
4.69474e-10
4.70068e-10
4.7073e-10
4.71456e-10
4.72244e-10
4.73091e-10
4.73994e-10
4.74948e-10
4.75949e-10
4.76994e-10
4.78078e-10
4.79196e-10
4.80343e-10
4.81513e-10
4.827e-10
4.83899e-10
4.85103e-10
4.86305e-10
4.87499e-10
4.88676e-10
4.89829e-10
4.90951e-10
4.92032e-10
4.93065e-10
4.9404e-10
4.94947e-10
4.95779e-10
4.96523e-10
4.97171e-10
4.97711e-10
4.98134e-10
4.98427e-10
4.98579e-10
5.22569e-10
5.22412e-10
5.22111e-10
5.21678e-10
5.21123e-10
5.20458e-10
5.19693e-10
5.1884e-10
5.17908e-10
5.16907e-10
5.15847e-10
5.14737e-10
5.13585e-10
5.12401e-10
5.11192e-10
5.09966e-10
5.08732e-10
5.07496e-10
5.06264e-10
5.05045e-10
5.03843e-10
5.02665e-10
5.01517e-10
5.00404e-10
4.9933e-10
4.98301e-10
4.97321e-10
4.96395e-10
4.95525e-10
4.94715e-10
4.93969e-10
4.93289e-10
4.92679e-10
4.92139e-10
4.91673e-10
4.91282e-10
4.90968e-10
4.90731e-10
4.90572e-10
4.90493e-10
4.90493e-10
4.90572e-10
4.90731e-10
4.90968e-10
4.91282e-10
4.91673e-10
4.92139e-10
4.92679e-10
4.93289e-10
4.93969e-10
4.94715e-10
4.95525e-10
4.96395e-10
4.97321e-10
4.98301e-10
4.9933e-10
5.00404e-10
5.01517e-10
5.02665e-10
5.03843e-10
5.05045e-10
5.06264e-10
5.07496e-10
5.08732e-10
5.09966e-10
5.11192e-10
5.12401e-10
5.13585e-10