/*--------------------------------*- C++ -*----------------------------------*\
  =========                 |
  \\      /  F ield         | OpenFOAM: The Open Source CFD Toolbox
   \\    /   O peration     | Website:  https://openfoam.org
    \\  /    A nd           | Version:  11
     \\/     M anipulation  |
\*---------------------------------------------------------------------------*/
FoamFile
{
    format      ascii;
    class       volScalarField;
    location    "5";
    object      C;
}
// * * * * * * * * * * * * * * * * * * * * * * * * * * * * * * * * * * * * * //

dimensions      [0 0 0 1 0 0 0];

internalField   nonuniform List<scalar> 
332800
(
1.58021e-210
1.37145e-210
1.08268e-210
7.94967e-211
5.49853e-211
3.61192e-211
2.26618e-211
1.36379e-211
7.8981e-212
4.41362e-212
2.38555e-212
1.24993e-212
6.36466e-213
3.15998e-213
1.53749e-213
7.39335e-214
3.56455e-214
1.76268e-214
9.21469e-215
5.23997e-215
3.27729e-215
2.22375e-215
1.59171e-215
1.16984e-215
8.66457e-216
6.39846e-216
4.68609e-216
3.39624e-216
2.4344e-216
1.72624e-216
1.21169e-216
8.42562e-217
5.8088e-217
3.97371e-217
2.69942e-217
1.82234e-217
1.22342e-217
8.17333e-218
5.43706e-218
3.60354e-218
2.38088e-218
1.56901e-218
1.03185e-218
6.77539e-219
4.44419e-219
2.91345e-219
1.90982e-219
1.25247e-219
8.22169e-220
5.40529e-220
3.56144e-220
2.35363e-220
1.5619e-220
1.04262e-220
7.021e-221
4.79202e-221
3.3406e-221
2.40645e-221
1.81942e-221
1.4681e-221
1.27982e-221
1.20875e-221
1.23038e-221
1.34227e-221
1.57216e-221
1.99624e-221
2.77178e-221
4.18986e-221
6.75429e-221
1.12904e-220
1.90793e-220
3.19946e-220
5.25858e-220
8.40013e-220
1.29584e-219
1.9192e-219
2.71118e-219
3.62231e-219
4.52037e-219
5.15886e-219
5.86536e-210
5.27957e-210
4.38598e-210
3.41155e-210
2.50796e-210
1.754e-210
1.17277e-210
7.52548e-211
4.64874e-211
2.77168e-211
1.59854e-211
8.9361e-212
4.85083e-212
2.56161e-212
1.31845e-212
6.62834e-213
3.26381e-213
1.58e-213
7.56141e-214
3.60751e-214
1.73737e-214
8.59275e-215
4.45399e-215
2.46321e-215
1.4647e-215
9.3073e-216
6.21974e-216
4.29224e-216
3.01322e-216
2.12973e-216
1.50599e-216
1.06166e-216
7.44787e-217
5.19549e-217
3.6032e-217
2.48473e-217
1.70428e-217
1.16322e-217
7.90399e-218
5.34952e-218
3.60819e-218
2.42659e-218
1.62801e-218
1.09017e-218
7.29011e-219
4.87073e-219
3.25312e-219
2.17309e-219
1.45267e-219
9.72329e-220
6.52085e-220
4.3851e-220
2.96e-220
2.00868e-220
1.37369e-220
9.50595e-221
6.70201e-221
4.86881e-221
3.70867e-221
3.03345e-221
2.73575e-221
2.77681e-221
3.19122e-221
4.11221e-221
5.82558e-221
8.8651e-221
1.41658e-220
2.3292e-220
3.87482e-220
6.43572e-220
1.05637e-219
1.70027e-219
2.66695e-219
4.05539e-219
5.94936e-219
8.37861e-219
1.12641e-218
1.43549e-218
1.71767e-218
1.90234e-218
1.2885e-209
1.1735e-209
9.93606e-210
7.91756e-210
5.98581e-210
4.3181e-210
2.98509e-210
1.98412e-210
1.27145e-210
7.87283e-211
4.71972e-211
2.74414e-211
1.54985e-211
8.5157e-212
4.55864e-212
2.38123e-212
1.21577e-212
6.07921e-213
2.9847e-213
1.44387e-213
6.917e-214
3.30581e-214
1.59313e-214
7.85468e-215
4.03073e-215
2.18784e-215
1.26763e-215
7.82575e-216
5.08957e-216
3.43392e-216
2.36961e-216
1.65453e-216
1.1606e-216
8.14321e-217
5.70084e-217
3.97691e-217
2.76289e-217
1.91129e-217
1.3167e-217
9.03557e-218
6.17858e-218
4.21177e-218
2.86337e-218
1.94236e-218
1.31532e-218
8.89607e-219
6.01236e-219
4.06251e-219
2.74585e-219
1.8575e-219
1.25836e-219
8.54277e-220
5.81648e-220
3.97623e-220
2.73384e-220
1.89597e-220
1.33344e-220
9.60758e-221
7.22703e-221
5.85997e-221
5.34913e-221
5.70409e-221
7.13083e-221
1.01099e-220
1.55415e-220
2.49833e-220
4.1009e-220
6.77094e-220
1.11326e-219
1.80946e-219
2.89068e-219
4.51695e-219
6.87404e-219
1.0147e-218
1.44694e-218
1.98453e-218
2.60478e-218
3.25139e-218
3.82733e-218
4.19652e-218
2.51491e-209
2.30225e-209
1.96671e-209
1.58616e-209
1.21714e-209
8.93515e-210
6.3009e-210
4.28155e-210
2.81048e-210
1.7858e-210
1.10029e-210
6.58366e-211
3.83088e-211
2.17046e-211
1.1988e-211
6.46247e-212
3.40438e-212
1.7548e-212
8.86346e-213
4.39457e-213
2.14348e-213
1.03154e-213
4.91825e-214
2.33712e-214
1.11647e-214
5.42666e-215
2.72502e-215
1.43706e-215
8.06133e-216
4.8297e-216
3.0709e-216
2.04483e-216
1.40484e-216
9.83299e-217
6.94781e-217
4.92618e-217
3.49207e-217
2.4698e-217
1.74091e-217
1.22241e-217
8.54978e-218
5.9573e-218
4.13647e-218
2.8633e-218
1.97675e-218
1.36174e-218
9.36517e-219
6.43347e-219
4.41692e-219
3.03241e-219
2.08313e-219
1.43289e-219
9.87781e-220
6.83273e-220
4.75201e-220
3.33455e-220
2.37651e-220
1.74195e-220
1.34344e-220
1.13042e-220
1.08401e-220
1.21823e-220
1.58886e-220
2.31225e-220
3.59776e-220
5.79821e-220
9.48242e-220
1.55311e-219
2.52508e-219
4.04872e-219
6.37003e-219
9.79356e-219
1.46598e-218
2.12916e-218
2.98986e-218
4.04362e-218
5.24272e-218
6.47821e-218
7.56807e-218
8.26136e-218
4.70455e-209
4.31721e-209
3.70408e-209
3.00573e-209
2.32476e-209
1.72333e-209
1.22942e-209
8.46729e-210
5.64381e-210
3.64799e-210
2.29036e-210
1.39873e-210
8.31905e-211
4.82398e-211
2.73007e-211
1.5094e-211
8.16058e-212
4.31871e-212
2.2395e-212
1.1392e-212
5.6916e-213
2.79692e-213
1.3542e-213
6.47452e-214
3.06581e-214
1.44394e-214
6.80685e-215
3.24189e-215
1.58084e-215
8.0288e-216
4.32424e-216
2.5016e-216
1.55673e-216
1.03114e-216
7.14659e-217
5.09492e-217
3.6866e-217
2.68315e-217
1.9534e-217
1.41812e-217
1.02498e-217
7.37076e-218
5.27305e-218
3.75371e-218
2.66004e-218
1.87746e-218
1.32057e-218
9.26257e-219
6.48273e-219
4.53034e-219
3.16342e-219
2.20894e-219
1.54398e-219
1.08179e-219
7.61527e-220
5.4087e-220
3.9071e-220
2.91506e-220
2.30874e-220
2.02225e-220
2.04371e-220
2.42216e-220
3.28797e-220
4.89164e-220
7.66762e-220
1.23307e-219
2.0011e-219
3.24288e-219
5.20957e-219
8.25067e-219
1.28253e-218
1.94939e-218
2.88736e-218
4.15379e-218
5.78419e-218
7.76665e-218
1.00098e-217
1.23104e-217
1.43323e-217
1.56146e-217
8.6446e-209
7.94237e-209
6.8293e-209
5.55929e-209
4.31794e-209
3.21805e-209
2.31099e-209
1.60438e-209
1.07952e-209
7.05441e-210
4.48464e-210
2.77739e-210
1.67765e-210
9.894e-211
5.70225e-211
3.21435e-211
1.77361e-211
9.58693e-212
5.08024e-212
2.64116e-212
1.34811e-212
6.76039e-213
3.33264e-213
1.61573e-213
7.70566e-214
3.61449e-214
1.66654e-214
7.54405e-215
3.34731e-215
1.45346e-215
6.17888e-216
2.59178e-216
1.10296e-216
5.09366e-217
2.81774e-217
1.94798e-217
1.56924e-217
1.33753e-217
1.1408e-217
9.53524e-218
7.77323e-218
6.18734e-218
4.82242e-218
3.69156e-218
2.78327e-218
2.07189e-218
1.52602e-218
1.11411e-218
8.07542e-219
5.81955e-219
4.1752e-219
2.98604e-219
2.13193e-219
1.52238e-219
1.09044e-219
7.87493e-220
5.7908e-220
4.41802e-220
3.61338e-220
3.31577e-220
3.5508e-220
4.45211e-220
6.30576e-220
9.6266e-220
1.52785e-219
2.4651e-219
3.99033e-219
6.42741e-219
1.02436e-218
1.60827e-218
2.47844e-218
3.7367e-218
5.49461e-218
7.85524e-218
1.08814e-217
1.45489e-217
1.86886e-217
2.29265e-217
2.66457e-217
2.90007e-217
1.5755e-208
1.44839e-208
1.2468e-208
1.01661e-208
7.91377e-209
5.91521e-209
4.26375e-209
2.9738e-209
2.01229e-209
1.32394e-209
8.48423e-210
5.3034e-210
3.23761e-210
1.9323e-210
1.12846e-210
6.45368e-211
3.61691e-211
1.98771e-211
1.07177e-211
5.6728e-212
2.94858e-212
1.50538e-212
7.54886e-213
3.71624e-213
1.79383e-213
8.46913e-214
3.89297e-214
1.72752e-214
7.2813e-215
2.8162e-215
9.12342e-216
1.60359e-216
-9.48862e-217
-1.49872e-216
-1.33848e-216
-9.99447e-217
-6.77681e-217
-4.28901e-217
-2.55135e-217
-1.41631e-217
-7.14255e-218
-3.02715e-218
-7.62834e-219
3.75374e-219
8.60991e-219
9.9037e-219
9.41486e-219
8.16481e-219
6.70706e-219
5.31707e-219
4.11222e-219
3.12494e-219
2.3458e-219
1.74795e-219
1.30015e-219
9.73493e-220
7.44433e-220
5.96317e-220
5.20444e-220
5.17666e-220
6.01394e-220
8.03026e-220
1.18116e-219
1.83633e-219
2.9335e-219
4.73449e-219
7.64219e-219
1.22564e-218
1.94372e-218
3.03644e-218
4.65702e-218
6.99081e-218
1.02405e-217
1.45926e-217
2.01603e-217
2.68977e-217
3.44937e-217
4.22634e-217
4.90771e-217
5.33866e-217
2.86014e-208
2.63021e-208
2.26544e-208
1.84877e-208
1.44088e-208
1.07871e-208
7.79153e-209
5.44865e-209
3.69922e-209
2.44382e-209
1.5739e-209
9.89715e-210
6.08456e-210
3.66108e-210
2.15799e-210
1.24707e-210
7.07001e-211
3.93444e-211
2.15018e-211
1.15436e-211
6.08918e-212
3.15567e-212
1.606e-212
8.01782e-213
3.91854e-213
1.86765e-213
8.62117e-214
3.80449e-214
1.56292e-214
5.60118e-215
1.37844e-215
-2.16431e-216
-6.814e-216
-7.01454e-216
-5.76379e-216
-4.28281e-216
-3.0032e-216
-2.02589e-216
-1.32767e-216
-8.49723e-217
-5.32486e-217
-3.26985e-217
-1.96617e-217
-1.15497e-217
-6.59753e-218
-3.63497e-218
-1.90266e-218
-9.17282e-219
-3.7654e-219
-9.45679e-220
4.09205e-220
9.64883e-220
1.10761e-219
1.05607e-219
9.30725e-220
7.96301e-220
6.87819e-220
6.26836e-220
6.32444e-220
7.302e-220
9.61625e-220
1.39678e-219
2.15281e-219
3.42194e-219
5.51298e-219
8.91061e-219
1.43558e-218
2.29473e-218
3.62563e-218
5.64347e-218
8.62743e-218
1.29151e-217
1.88754e-217
2.6848e-217
3.70381e-217
4.93612e-217
6.32482e-217
7.74472e-217
8.98942e-217
9.77595e-217
5.18217e-208
4.76635e-208
4.10656e-208
3.35278e-208
2.61472e-208
1.95917e-208
1.41672e-208
9.92194e-209
6.74912e-209
4.4695e-209
2.88724e-209
1.82235e-209
1.12541e-209
6.808e-210
4.03824e-210
2.35062e-210
1.34365e-210
7.54635e-211
4.16591e-211
2.26103e-211
1.20653e-211
6.32819e-212
3.25998e-212
1.64708e-212
8.14017e-213
3.91703e-213
1.81995e-213
8.03672e-214
3.26193e-214
1.11377e-214
2.11261e-215
-1.22158e-215
-2.09832e-215
-2.01389e-215
-1.62887e-215
-1.21306e-215
-8.60502e-216
-5.91053e-216
-3.96667e-216
-2.61506e-216
-1.69925e-216
-1.09066e-216
-6.92449e-217
-4.35242e-217
-2.70973e-217
-1.67123e-217
-1.02092e-217
-6.17409e-218
-3.69302e-218
-2.18162e-218
-1.26987e-218
-7.25594e-219
-4.04282e-219
-2.16679e-219
-1.07944e-219
-4.44009e-220
-5.10125e-221
2.36114e-220
5.17551e-220
8.84406e-220
1.44333e-219
2.34427e-219
3.81737e-219
6.22582e-219
1.01424e-218
1.64578e-218
2.6527e-218
4.23536e-218
6.67987e-218
1.03778e-217
1.58371e-217
2.36719e-217
3.45537e-217
4.91007e-217
6.76862e-217
9.0156e-217
1.15472e-216
1.41352e-216
1.64032e-216
1.78353e-216
9.37995e-208
8.62808e-208
7.43489e-208
6.07163e-208
4.73665e-208
3.55074e-208
2.56923e-208
1.80083e-208
1.2263e-208
8.13238e-209
5.26287e-209
3.32933e-209
2.06184e-209
1.25158e-209
7.45467e-210
4.36057e-210
2.50679e-210
1.41708e-210
7.88028e-211
4.31165e-211
2.32098e-211
1.2287e-211
6.39093e-212
3.26047e-212
1.62662e-212
7.89443e-213
3.69281e-213
1.63581e-213
6.60555e-214
2.18762e-214
3.27167e-215
-3.53614e-215
-5.21381e-215
-4.88199e-215
-3.93254e-215
-2.93822e-215
-2.09898e-215
-1.45556e-215
-9.88259e-216
-6.6042e-216
-4.35884e-216
-2.84804e-216
-1.84535e-216
-1.18718e-216
-7.59071e-217
-4.82744e-217
-3.05567e-217
-1.92619e-217
-1.20983e-217
-7.57504e-218
-4.73029e-218
-2.94718e-218
-1.83244e-218
-1.13643e-218
-7.01088e-219
-4.26248e-219
-2.47825e-219
-1.23603e-219
-2.36857e-220
7.64021e-220
2.01482e-219
3.82616e-219
6.64362e-219
1.11473e-218
1.83928e-218
3.00093e-218
4.8466e-218
7.7407e-218
1.22032e-217
1.89455e-217
2.88904e-217
4.31538e-217
6.29557e-217
8.942e-217
1.23225e-216
1.64091e-216
2.10129e-216
2.57187e-216
2.98416e-216
3.24428e-216
1.6969e-207
1.56096e-207
1.34521e-207
1.09869e-207
8.57275e-208
6.428e-208
4.65271e-208
3.26268e-208
2.22311e-208
1.47548e-208
9.55857e-209
6.05499e-209
3.75626e-209
2.28503e-209
1.3646e-209
8.00772e-210
4.62101e-210
2.62391e-210
1.46663e-210
8.07113e-211
4.37263e-211
2.33094e-211
1.22137e-211
6.27855e-212
3.15611e-212
1.54275e-212
7.26084e-213
3.22872e-213
1.30179e-213
4.22938e-214
5.12842e-215
-8.43414e-215
-1.16527e-214
-1.07985e-214
-8.69634e-215
-6.51988e-215
-4.68221e-215
-3.26789e-215
-2.23513e-215
-1.50596e-215
-1.00299e-215
-6.61903e-216
-4.3359e-216
-2.82318e-216
-1.82914e-216
-1.18032e-216
-7.59187e-217
-4.87093e-217
-3.11958e-217
-1.99573e-217
-1.27625e-217
-8.16415e-218
-5.2277e-218
-3.35196e-218
-2.1508e-218
-1.37598e-218
-8.66696e-219
-5.16539e-219
-2.51223e-219
-1.27952e-220
2.53008e-219
6.08907e-219
1.14019e-218
1.97334e-218
3.30206e-218
5.42334e-218
8.78593e-218
1.40512e-217
2.21625e-217
3.44097e-217
5.24666e-217
7.83574e-217
1.14295e-216
1.62318e-216
2.23659e-216
2.97807e-216
3.81335e-216
4.66705e-216
5.41484e-216
5.88627e-216
3.06891e-207
2.82314e-207
2.43304e-207
1.9873e-207
1.55078e-207
1.16296e-207
8.41925e-208
5.90541e-208
4.02516e-208
2.67271e-208
1.7325e-208
1.09833e-208
6.82053e-209
4.15449e-209
2.48509e-209
1.46125e-209
8.45322e-210
4.8141e-210
2.70019e-210
1.49192e-210
8.11931e-211
4.34997e-211
2.29171e-211
1.18485e-211
5.99106e-212
2.94535e-212
1.39341e-212
6.21982e-213
2.5087e-213
8.05752e-214
8.21455e-215
-1.82201e-214
-2.4378e-214
-2.24981e-214
-1.81442e-214
-1.36496e-214
-9.84516e-215
-6.90526e-215
-4.7484e-215
-3.21781e-215
-2.15634e-215
-1.43244e-215
-9.4498e-216
-6.19954e-216
-4.0493e-216
-2.63571e-216
-1.71111e-216
-1.10881e-216
-7.17728e-217
-4.64403e-217
-3.00597e-217
-1.94785e-217
-1.26453e-217
-8.2294e-218
-5.36869e-218
-3.50436e-218
-2.27191e-218
-1.42936e-218
-8.09076e-219
-2.83746e-219
2.60078e-219
9.46356e-219
1.93668e-218
3.46502e-218
5.88547e-218
9.73795e-218
1.58362e-217
2.53784e-217
4.00722e-217
6.2253e-217
9.49505e-217
1.41829e-216
2.06895e-216
2.9384e-216
4.04894e-216
5.39131e-216
6.90344e-216
8.44877e-216
9.80209e-216
1.06547e-215
5.54921e-207
5.1049e-207
4.39963e-207
3.59374e-207
2.8045e-207
2.10329e-207
1.52283e-207
1.06829e-207
7.28283e-208
4.83701e-208
3.13648e-208
1.98929e-208
1.23606e-208
7.53476e-209
4.51148e-209
2.65606e-209
1.53888e-209
8.78046e-210
4.93605e-210
2.73458e-210
1.49282e-210
8.02593e-211
4.24477e-211
2.20385e-211
1.11928e-211
5.52734e-212
2.62611e-212
1.17644e-212
4.75287e-213
1.51842e-213
1.37322e-214
-3.69018e-214
-4.86528e-214
-4.48776e-214
-3.62782e-214
-2.73836e-214
-1.98269e-214
-1.39633e-214
-9.64302e-215
-6.56391e-215
-4.41914e-215
-2.94989e-215
-1.95596e-215
-1.29008e-215
-8.47367e-216
-5.5482e-216
-3.62434e-216
-2.36396e-216
-1.54067e-216
-1.00404e-216
-6.54756e-217
-4.27586e-217
-2.79843e-217
-1.83676e-217
-1.20939e-217
-7.98034e-218
-5.25165e-218
-3.39209e-218
-2.04582e-218
-9.47097e-219
1.33302e-219
1.43587e-218
3.2639e-218
6.04799e-218
1.04332e-217
1.73988e-217
2.84175e-217
4.56553e-217
7.21983e-217
1.12267e-216
1.71334e-216
2.56021e-216
3.73568e-216
5.30642e-216
7.31271e-216
9.73779e-216
1.24695e-215
1.52608e-215
1.77048e-215
1.92435e-215
1.00329e-206
9.22971e-207
7.95469e-207
6.49774e-207
5.07087e-207
3.80315e-207
2.75371e-207
1.9319e-207
1.31716e-207
8.74932e-208
5.67439e-208
3.59982e-208
2.2375e-208
1.36452e-208
8.17477e-209
4.81627e-209
2.79306e-209
1.59549e-209
8.98203e-210
4.98462e-210
2.72667e-210
1.46944e-210
7.7926e-211
4.05805e-211
2.06777e-211
1.02469e-211
4.8859e-212
2.19642e-212
8.90005e-213
2.84546e-213
2.47196e-214
-7.10935e-214
-9.35539e-214
-8.64969e-214
-7.01449e-214
-5.31294e-214
-3.86046e-214
-2.72856e-214
-1.89121e-214
-1.29209e-214
-8.73185e-215
-5.8513e-215
-3.89524e-215
-2.57972e-215
-1.70168e-215
-1.11911e-215
-7.34403e-216
-4.81284e-216
-3.15206e-216
-2.06455e-216
-1.35334e-216
-8.88509e-217
-5.84688e-217
-3.85935e-217
-2.5565e-217
-1.69869e-217
-1.1283e-217
-7.40326e-218
-4.62456e-218
-2.41273e-218
-3.17193e-219
2.12108e-218
5.46638e-218
1.05071e-217
1.8415e-217
3.09618e-217
5.08071e-217
8.18601e-217
1.29688e-216
2.01902e-216
3.08375e-216
4.61044e-216
6.72964e-216
9.56158e-216
1.31788e-215
1.75511e-215
2.24759e-215
2.75078e-215
3.19127e-215
3.4684e-215
1.81378e-206
1.66859e-206
1.4381e-206
1.17472e-206
9.16767e-207
6.87587e-207
4.97868e-207
3.49298e-207
2.38162e-207
1.58211e-207
1.02618e-207
6.51085e-208
4.04756e-208
2.46895e-208
1.47958e-208
8.72067e-209
5.05996e-209
2.89237e-209
1.6297e-209
9.05371e-210
4.959e-210
2.67666e-210
1.4221e-210
7.42172e-211
3.79111e-211
1.88401e-211
9.01224e-212
4.06655e-212
1.65553e-212
5.33354e-213
4.91483e-214
-1.30924e-213
-1.74182e-213
-1.61919e-213
-1.31863e-213
-1.00249e-213
-7.30968e-214
-5.18378e-214
-3.60474e-214
-2.47079e-214
-1.67516e-214
-1.12621e-214
-7.52213e-215
-4.99858e-215
-3.30865e-215
-2.18364e-215
-1.43819e-215
-9.46002e-216
-6.21915e-216
-4.08922e-216
-2.6911e-216
-1.77384e-216
-1.17202e-216
-7.76827e-217
-5.16833e-217
-3.45117e-217
-2.30728e-217
-1.53009e-217
-9.77556e-218
-5.45446e-218
-1.47187e-218
3.03565e-218
9.10922e-218
1.81857e-217
3.23866e-217
5.49102e-217
9.05513e-217
1.46352e-216
2.32339e-216
3.62215e-216
5.53752e-216
8.28439e-216
1.20977e-215
1.71938e-215
2.37031e-215
3.1571e-215
4.04327e-215
4.94863e-215
5.741e-215
6.23922e-215
3.27879e-206
3.01635e-206
2.5997e-206
2.12358e-206
1.65729e-206
1.243e-206
9.00042e-207
6.31469e-207
4.30565e-207
2.86032e-207
1.85531e-207
1.17722e-207
7.31893e-208
4.46491e-208
2.67611e-208
1.57762e-208
9.15631e-209
5.23587e-209
2.95157e-209
1.64078e-209
8.9944e-210
4.85983e-210
2.58537e-210
1.35144e-210
6.91709e-211
3.44607e-211
1.65372e-211
7.49486e-212
3.07251e-212
1.00533e-212
1.07672e-213
-2.30103e-213
-3.14529e-213
-2.95143e-213
-2.41729e-213
-1.84571e-213
-1.35074e-213
-9.6108e-214
-6.70407e-214
-4.60894e-214
-3.13397e-214
-2.11311e-214
-1.41549e-214
-9.43378e-215
-6.2629e-215
-4.14581e-215
-2.73884e-215
-1.80711e-215
-1.19174e-215
-7.86075e-216
-5.18962e-216
-3.43174e-216
-2.27475e-216
-1.51267e-216
-1.00984e-216
-6.76911e-217
-4.54789e-217
-3.03971e-217
-1.97306e-217
-1.14954e-217
-4.06062e-218
4.17656e-218
1.51219e-217
3.13819e-217
5.67865e-217
9.70971e-217
1.60942e-216
2.60986e-216
4.15255e-216
6.48383e-216
9.92306e-216
1.48564e-215
2.17059e-215
3.086e-215
4.2553e-215
5.6686e-215
7.26033e-215
8.88637e-215
1.03092e-214
1.12033e-214
5.92678e-206
5.45241e-206
4.69928e-206
3.83865e-206
2.99578e-206
2.2469e-206
1.62696e-206
1.14148e-206
7.7832e-207
5.17057e-207
3.35387e-207
2.1281e-207
1.3231e-207
8.07185e-208
4.83825e-208
2.85248e-208
1.65575e-208
9.46981e-209
5.33974e-209
2.96947e-209
1.62865e-209
8.80613e-210
4.68928e-210
2.45441e-210
1.25848e-210
6.28511e-211
3.02677e-211
1.37924e-211
5.70936e-212
1.91325e-212
2.52081e-213
-3.82819e-213
-5.5035e-213
-5.24171e-213
-4.32689e-213
-3.32134e-213
-2.4407e-213
-1.74268e-213
-1.21944e-213
-8.40795e-214
-5.7332e-214
-3.8762e-214
-2.60349e-214
-1.73978e-214
-1.15809e-214
-7.6867e-215
-5.09175e-215
-3.3687e-215
-2.22763e-215
-1.47337e-215
-9.7537e-216
-6.46745e-216
-4.29869e-216
-2.86642e-216
-1.91905e-216
-1.29043e-216
-8.7046e-217
-5.85393e-217
-3.84528e-217
-2.30909e-217
-9.43404e-218
5.45631e-218
2.50427e-217
5.40321e-217
9.93198e-217
1.71263e-216
2.85361e-216
4.64358e-216
7.40613e-216
1.15834e-215
1.77484e-215
2.65939e-215
3.88768e-215
5.52936e-215
7.62637e-215
1.01609e-214
1.30153e-214
1.59308e-214
1.84815e-214
2.00836e-214
1.07128e-205
9.85544e-206
8.49414e-206
6.93853e-206
5.415e-206
4.06138e-206
2.94081e-206
2.06328e-206
1.40684e-206
9.34597e-207
6.06218e-207
3.84656e-207
2.39149e-207
1.45897e-207
8.74503e-208
5.15586e-208
2.99286e-208
1.71185e-208
9.65388e-209
5.36979e-209
2.94618e-209
1.59387e-209
8.49428e-210
4.45133e-210
2.28644e-210
1.14492e-210
5.53631e-211
2.5399e-211
1.06485e-211
3.68375e-212
6.07341e-213
-5.91784e-213
-9.29794e-213
-9.06034e-213
-7.56161e-213
-5.844e-213
-4.31564e-213
-3.09351e-213
-2.17194e-213
-1.50205e-213
-1.02709e-213
-6.96268e-214
-4.68869e-214
-3.14119e-214
-2.09622e-214
-1.39483e-214
-9.26262e-215
-6.14345e-215
-4.0726e-215
-2.70032e-215
-1.79202e-215
-1.19115e-215
-7.93642e-216
-5.30498e-216
-3.56054e-216
-2.40082e-216
-1.62501e-216
-1.09842e-216
-7.28339e-217
-4.47242e-217
-2.00128e-217
6.62689e-218
4.14404e-217
9.2892e-217
1.73362e-216
3.01434e-216
5.0491e-216
8.24572e-216
1.31843e-215
2.06573e-215
3.16915e-215
4.75277e-215
6.95214e-215
9.89195e-215
1.36472e-214
1.81857e-214
2.32966e-214
2.85165e-214
3.30823e-214
3.59488e-214
1.93631e-205
1.78134e-205
1.53529e-205
1.25412e-205
9.78745e-206
7.3408e-206
5.31539e-206
3.72928e-206
2.54278e-206
1.68921e-206
1.09567e-206
6.95209e-207
4.32215e-207
2.63672e-207
1.58039e-207
9.31737e-208
5.40846e-208
3.09356e-208
1.74471e-208
9.70602e-209
5.32677e-209
2.88314e-209
1.53772e-209
8.06818e-210
4.15221e-210
2.08546e-210
1.01332e-210
4.68722e-211
1.99614e-211
7.17545e-212
1.46436e-212
-8.14452e-213
-1.50582e-212
-1.51971e-212
-1.28823e-212
-1.00466e-212
-7.46487e-213
-5.3758e-213
-3.78863e-213
-2.6287e-213
-1.80279e-213
-1.22549e-213
-8.27415e-214
-5.55736e-214
-3.71783e-214
-2.47993e-214
-1.65082e-214
-1.09754e-214
-7.29307e-215
-4.84701e-215
-3.22411e-215
-2.14796e-215
-1.43439e-215
-9.6096e-216
-6.46458e-216
-4.36991e-216
-2.96687e-216
-2.0143e-216
-1.346e-216
-8.40803e-217
-4.00029e-217
7.18068e-218
6.86591e-217
1.59591e-216
3.0215e-216
5.29622e-216
8.91804e-216
1.46173e-215
2.34329e-215
3.6783e-215
5.65054e-215
8.48197e-215
1.2415e-214
1.76725e-214
2.43883e-214
3.25047e-214
4.16438e-214
5.09769e-214
5.9139e-214
6.42614e-214
3.4997e-205
3.21961e-205
2.7749e-205
2.26671e-205
1.76899e-205
1.32678e-205
9.60702e-206
6.74023e-206
4.59574e-206
3.05297e-206
1.98021e-206
1.25641e-206
7.8109e-207
4.76482e-207
2.8558e-207
1.68358e-207
9.77234e-208
5.58957e-208
3.15252e-208
1.754e-208
9.62867e-209
5.21408e-209
2.78323e-209
1.46229e-209
7.54184e-210
3.80106e-210
1.85739e-210
8.67492e-211
3.76244e-211
1.41156e-211
3.47896e-212
-8.79191e-213
-2.30619e-212
-2.45979e-212
-2.13272e-212
-1.684e-212
-1.26129e-212
-9.13557e-213
-6.46736e-213
-4.50415e-213
-3.09915e-213
-2.113e-213
-1.43061e-213
-9.63428e-214
-6.4618e-214
-4.32102e-214
-2.88344e-214
-1.92165e-214
-1.27995e-214
-8.5264e-215
-5.6845e-215
-3.79562e-215
-2.54027e-215
-1.70556e-215
-1.14992e-215
-7.79187e-216
-5.30531e-216
-3.61626e-216
-2.43237e-216
-1.54004e-216
-7.64796e-217
6.27209e-218
1.14162e-216
2.74232e-216
5.26106e-216
9.2931e-216
1.57293e-215
2.58762e-215
4.15918e-215
6.54124e-215
1.00623e-214
1.5119e-214
2.21443e-214
3.15361e-214
4.35329e-214
5.80312e-214
7.4355e-214
9.10233e-214
1.05598e-213
1.14742e-213
6.32526e-205
5.81903e-205
5.01527e-205
4.09677e-205
3.19721e-205
2.39796e-205
1.73632e-205
1.21818e-205
8.30592e-206
5.51756e-206
3.5787e-206
2.27056e-206
1.41151e-206
8.61009e-207
5.16018e-207
3.04192e-207
1.7656e-207
1.00987e-207
5.69584e-208
3.16946e-208
1.74038e-208
9.42943e-209
5.03796e-209
2.65093e-209
1.37059e-209
6.93505e-210
3.41069e-210
1.61047e-210
7.12765e-211
2.79673e-211
8.08881e-212
-2.92145e-213
-3.24932e-212
-3.804e-212
-3.412e-212
-2.74175e-212
-2.07582e-212
-1.51477e-212
-1.07838e-212
-7.54425e-213
-5.21084e-213
-3.56482e-213
-2.42106e-213
-1.63517e-213
-1.09976e-213
-7.37375e-214
-4.93329e-214
-3.29605e-214
-2.2008e-214
-1.46959e-214
-9.82071e-215
-6.57245e-215
-4.40856e-215
-2.9665e-215
-2.00456e-215
-1.36154e-215
-9.29631e-216
-6.36022e-216
-4.30267e-216
-2.75362e-216
-1.40913e-216
2.80807e-218
1.91008e-216
4.71758e-216
9.1571e-216
1.62917e-215
2.77133e-215
4.57573e-215
7.3744e-215
1.16205e-214
1.79006e-214
2.6923e-214
3.94602e-214
5.62217e-214
7.76325e-214
1.03506e-213
1.32635e-213
1.62376e-213
1.88377e-213
2.04686e-213
1.14319e-204
1.05169e-204
9.06427e-205
7.40422e-205
5.7784e-205
4.33388e-205
3.13807e-205
2.20162e-205
1.50111e-205
9.97154e-206
6.46739e-206
4.10319e-206
2.55067e-206
1.55581e-206
9.32372e-207
5.49603e-207
3.18987e-207
1.82448e-207
1.02909e-207
5.72723e-208
3.14589e-208
1.70547e-208
9.12142e-209
4.80779e-209
2.49257e-209
1.26677e-209
6.27458e-210
2.99833e-210
1.35583e-210
5.56356e-211
1.83698e-211
2.18649e-212
-3.93872e-212
-5.51633e-212
-5.22359e-212
-4.30785e-212
-3.31153e-212
-2.44101e-212
-1.75055e-212
-1.23167e-212
-8.54724e-213
-5.87107e-213
-4.00185e-213
-2.71187e-213
-1.82963e-213
-1.2304e-213
-8.25541e-214
-5.53091e-214
-3.70294e-214
-2.47908e-214
-1.66085e-214
-1.11423e-214
-7.49163e-215
-5.05289e-215
-3.42244e-215
-2.33037e-215
-1.59566e-215
-1.09565e-215
-7.45045e-216
-4.80908e-216
-2.51072e-216
-3.88978e-218
3.22509e-216
8.13292e-216
1.5942e-215
2.85486e-215
4.87952e-215
8.08527e-215
1.30651e-214
2.0628e-214
3.18209e-214
4.79073e-214
7.02647e-214
1.00157e-213
1.38341e-213
1.84482e-213
2.36423e-213
2.89449e-213
3.35803e-213
3.64872e-213
2.06611e-204
1.90075e-204
1.6382e-204
1.33817e-204
1.04433e-204
7.83263e-205
5.6714e-205
3.97892e-205
2.71287e-205
1.80207e-205
1.16877e-205
7.41491e-206
4.60914e-206
2.81126e-206
1.68465e-206
9.92996e-207
5.7631e-207
3.29625e-207
1.85935e-207
1.03498e-207
5.68711e-208
3.08522e-208
1.65197e-208
8.7237e-209
4.53638e-209
2.31653e-209
1.15625e-209
5.59534e-210
2.58646e-210
1.10798e-210
4.07645e-211
9.43948e-212
-3.19746e-212
-7.20551e-212
-7.51501e-212
-6.45825e-212
-5.07855e-212
-3.79784e-212
-2.75119e-212
-1.95048e-212
-1.36181e-212
-9.40228e-213
-6.43761e-213
-4.38015e-213
-2.96625e-213
-2.00177e-213
-1.34757e-213
-9.05718e-214
-6.08233e-214
-4.08406e-214
-2.74385e-214
-1.84584e-214
-1.24435e-214
-8.41451e-215
-5.71411e-215
-3.90133e-215
-2.67942e-215
-1.84656e-215
-1.26168e-215
-8.19816e-216
-4.32811e-216
-1.18696e-217
5.51106e-216
1.40654e-215
2.77787e-215
5.00301e-215
8.58917e-215
1.42809e-214
2.31366e-214
3.66e-214
5.65387e-214
8.52054e-214
1.25055e-213
1.78339e-213
2.46402e-213
3.28642e-213
4.21213e-213
5.15709e-213
5.98305e-213
6.50095e-213
3.73411e-204
3.43524e-204
2.96072e-204
2.41848e-204
1.88742e-204
1.41558e-204
1.02498e-204
7.19096e-205
4.90281e-205
3.25672e-205
2.11215e-205
1.33995e-205
8.32886e-206
5.07979e-206
3.04393e-206
1.79412e-206
1.04124e-206
5.95552e-207
3.35969e-207
1.87052e-207
1.02826e-207
5.58242e-208
2.99283e-208
1.58367e-208
8.26177e-209
4.2404e-209
2.13357e-209
1.04593e-209
4.94155e-210
2.20348e-210
8.8518e-211
2.78399e-211
1.93545e-212
-7.57334e-212
-9.77676e-212
-9.04199e-212
-7.37716e-212
-5.64007e-212
-4.14678e-212
-2.97183e-212
-2.09242e-212
-1.45464e-212
-1.00185e-212
-6.85224e-213
-4.66235e-213
-3.16019e-213
-2.13615e-213
-1.44131e-213
-9.71483e-214
-6.54612e-214
-4.41278e-214
-2.97812e-214
-2.01389e-214
-1.36592e-214
-9.30343e-215
-6.3716e-215
-4.39079e-215
-3.03778e-215
-2.08504e-215
-1.36136e-215
-7.20215e-216
-1.05343e-217
9.55493e-216
2.44284e-215
4.84796e-215
8.77268e-215
1.51216e-214
2.52233e-214
4.09667e-214
6.49272e-214
1.00436e-213
1.51507e-213
2.22515e-213
3.17469e-213
4.38757e-213
5.85298e-213
7.50235e-213
9.18583e-213
1.06572e-212
1.15798e-212
6.74874e-204
6.20855e-204
5.35095e-204
4.37094e-204
3.41114e-204
2.55837e-204
1.85243e-204
1.2996e-204
8.86058e-205
5.88558e-205
3.81701e-205
2.42145e-205
1.50507e-205
9.17906e-206
5.50006e-206
3.24169e-206
1.88132e-206
1.07608e-206
6.07116e-207
3.38097e-207
1.85945e-207
1.01031e-207
5.42373e-208
2.87616e-208
1.50553e-208
7.76802e-209
3.94069e-209
1.95701e-209
9.44313e-210
4.36753e-210
1.88414e-210
7.09714e-211
1.82923e-211
-3.2236e-212
-1.0351e-211
-1.12734e-211
-9.85397e-212
-7.8242e-212
-5.89228e-212
-4.29409e-212
-3.06168e-212
-2.14988e-212
-1.49311e-212
-1.02863e-212
-7.04411e-213
-4.80261e-213
-3.26395e-213
-2.21341e-213
-1.49899e-213
-1.0146e-213
-6.86852e-214
-4.65415e-214
-3.15937e-214
-2.15081e-214
-1.47029e-214
-1.01071e-214
-6.9928e-215
-4.8591e-215
-3.35007e-215
-2.19344e-215
-1.15015e-215
3.40878e-217
1.68387e-215
4.26484e-215
8.4798e-215
1.54e-214
2.66384e-214
4.45659e-214
7.25526e-214
1.15193e-213
1.78427e-213
2.69411e-213
3.95936e-213
5.65138e-213
7.81261e-213
1.04237e-212
1.33622e-212
1.63613e-212
1.89824e-212
2.06259e-212
1.21973e-203
1.12209e-203
9.67089e-204
7.89968e-204
6.165e-204
4.62377e-204
3.34789e-204
2.34874e-204
1.60134e-204
1.06366e-204
6.89808e-205
4.3759e-205
2.71978e-205
1.65867e-205
9.93837e-206
5.85743e-206
3.39937e-206
1.94447e-206
1.0972e-206
6.11187e-207
3.36307e-207
1.82886e-207
9.83178e-208
5.22535e-208
2.74472e-208
1.42376e-208
7.2821e-209
3.66249e-209
1.80288e-209
8.61588e-210
3.93816e-210
1.66981e-210
6.07996e-211
1.38104e-211
-4.9569e-212
-1.08384e-211
-1.12523e-211
-9.66687e-212
-7.61719e-212
-5.71819e-212
-4.16457e-212
-2.9723e-212
-2.09161e-212
-1.45699e-212
-1.00742e-212
-6.92771e-213
-4.74503e-213
-3.24089e-213
-2.20944e-213
-1.50473e-213
-1.02456e-213
-6.98027e-214
-4.76276e-214
-3.25827e-214
-2.23803e-214
-1.5459e-214
-1.07494e-214
-7.50841e-215
-5.20033e-215
-3.40557e-215
-1.74217e-215
2.13191e-216
3.01883e-215
7.49142e-215
1.48759e-214
2.70787e-214
4.69764e-214
7.87993e-214
1.28562e-213
2.04463e-213
3.17094e-213
4.79215e-213
7.04706e-213
1.00627e-212
1.39146e-212
1.85678e-212
2.38042e-212
2.91481e-212
3.38181e-212
3.67468e-212
2.20449e-203
2.02801e-203
1.74787e-203
1.42774e-203
1.11422e-203
8.35668e-204
6.05072e-204
4.24491e-204
2.89409e-204
1.92232e-204
1.24664e-204
7.90807e-205
4.91501e-205
2.99736e-205
1.79589e-205
1.05844e-205
6.14275e-206
3.51393e-206
1.9831e-206
1.105e-206
6.08352e-207
3.3112e-207
1.78264e-207
9.49573e-208
5.00524e-208
2.61016e-208
1.34577e-208
6.85105e-209
3.43551e-209
1.68996e-209
8.09637e-210
3.72876e-210
1.60834e-210
6.10479e-211
1.63355e-211
-2.02546e-212
-8.24364e-212
-9.20648e-212
-8.15565e-212
-6.54728e-212
-4.98333e-212
-3.67139e-212
-2.64746e-212
-1.88104e-212
-1.32245e-212
-9.22611e-213
-6.40037e-213
-4.42184e-213
-3.04605e-213
-2.09434e-213
-1.43856e-213
-9.88052e-214
-6.79274e-214
-4.6802e-214
-3.23683e-214
-2.25107e-214
-1.57611e-214
-1.10838e-214
-7.71478e-215
-5.03333e-215
-2.44409e-215
7.49627e-216
5.50394e-215
1.32492e-214
2.61898e-214
4.77188e-214
8.29669e-214
1.39486e-213
2.28014e-213
3.63182e-213
5.63892e-213
8.52894e-213
1.25493e-212
1.79264e-212
2.47941e-212
3.30903e-212
4.24254e-212
5.19513e-212
6.02759e-212
6.54977e-212
3.98439e-203
3.66541e-203
3.15907e-203
2.58047e-203
2.01382e-203
1.51036e-203
1.09358e-203
7.67202e-204
5.23057e-204
3.47422e-204
2.25303e-204
1.42918e-204
8.8824e-205
5.41669e-205
3.2454e-205
1.91272e-205
1.11009e-205
6.35073e-206
3.58466e-206
1.99804e-206
1.10061e-206
5.99598e-207
3.2327e-207
1.72587e-207
9.12844e-208
4.785e-208
2.48616e-208
1.28018e-208
6.52903e-209
3.29377e-209
1.63963e-209
8.01936e-210
3.82445e-210
1.75363e-210
7.51379e-211
2.80442e-211
6.95876e-212
-1.67941e-212
-4.56716e-212
-4.95472e-212
-4.37873e-212
-3.53512e-212
-2.71541e-212
-2.02249e-212
-1.47581e-212
-1.06157e-212
-7.55739e-213
-5.33929e-213
-3.75099e-213
-2.6244e-213
-1.83104e-213
-1.27549e-213
-8.88234e-214
-6.19312e-214
-4.33151e-214
-3.04534e-214
-2.15519e-214
-1.53072e-214
-1.07174e-214
-6.91575e-215
-3.00216e-215
2.15628e-215
1.01908e-214
2.36039e-214
4.62994e-214
8.4318e-214
1.46815e-213
2.47279e-213
4.04891e-213