/*--------------------------------*- C++ -*----------------------------------*\
  =========                 |
  \\      /  F ield         | OpenFOAM: The Open Source CFD Toolbox
   \\    /   O peration     | Website:  https://openfoam.org
    \\  /    A nd           | Version:  11
     \\/     M anipulation  |
\*---------------------------------------------------------------------------*/
FoamFile
{
    format      ascii;
    class       volScalarField;
    location    "100";
    object      C;
}
// * * * * * * * * * * * * * * * * * * * * * * * * * * * * * * * * * * * * * //

dimensions      [0 0 0 1 0 0 0];

internalField   nonuniform List<scalar> 
440320
(
4.3668e-259
4.12557e-259
3.63425e-259
3.0378e-259
2.4414e-259
1.90481e-259
1.45323e-259
1.08979e-259
8.06146e-260
5.89569e-260
4.26894e-260
3.06293e-260
2.17869e-260
1.53678e-260
1.07507e-260
7.45905e-261
5.13258e-261
3.50231e-261
2.36967e-261
1.58952e-261
1.05684e-261
6.96343e-262
4.54582e-262
2.9394e-262
1.8821e-262
1.19295e-262
7.48258e-263
4.64263e-263
2.84828e-263
1.72706e-263
1.0345e-263
6.11807e-264
3.57037e-264
2.05475e-264
1.16536e-264
6.50893e-265
3.57747e-265
1.93325e-265
1.02613e-265
5.34184e-266
2.72114e-266
1.36467e-266
6.7487e-267
3.29462e-267
1.589e-267
7.57578e-268
3.572e-268
1.66619e-268
7.69105e-269
3.5139e-269
1.58933e-269
7.11742e-270
3.15638e-270
1.3866e-270
6.03961e-271
2.61685e-271
1.14105e-271
5.20825e-272
2.77763e-272
2.06526e-272
2.23128e-272
2.98286e-272
4.28911e-272
6.26696e-272
9.14446e-272
1.32611e-271
1.90878e-271
2.72598e-271
3.86173e-271
5.42518e-271
7.55454e-271
1.04185e-270
1.42105e-270
1.91268e-270
2.53154e-270
3.27782e-270
4.12173e-270
4.98383e-270
5.71447e-270
6.08211e-270
2.75345e-258
2.23048e-258
1.78254e-258
1.41118e-258
1.10563e-258
8.56503e-259
6.55713e-259
4.96053e-259
3.70928e-259
2.74281e-259
2.00663e-259
1.45315e-259
1.04207e-259
7.40223e-260
5.20953e-260
3.63297e-260
2.51059e-260
1.71924e-260
1.16658e-260
7.84262e-261
5.2229e-261
3.44496e-261
2.25e-261
1.45478e-261
9.30907e-262
5.89347e-262
3.69011e-262
2.28425e-262
1.39732e-262
8.44289e-263
5.03626e-263
2.96415e-263
1.72029e-263
9.83831e-264
5.54048e-264
3.07004e-264
1.67242e-264
8.94824e-265
4.69694e-265
2.41428e-265
1.2105e-265
5.98708e-266
2.92364e-266
1.41053e-266
6.72682e-267
3.1724e-267
1.47998e-267
6.83176e-268
3.12112e-268
1.41145e-268
6.31925e-269
2.80135e-269
1.22983e-269
5.34888e-270
2.30758e-270
9.91832e-271
4.3151e-271
2.00311e-271
1.13596e-271
9.33497e-272
1.08584e-271
1.49491e-271
2.16568e-271
3.16381e-271
4.6031e-271
6.64701e-271
9.51725e-271
1.35065e-270
1.89932e-270
2.64569e-270
3.64915e-270
4.9814e-270
6.72675e-270
8.98172e-270
1.1855e-269
1.5469e-269
1.99629e-269
2.54932e-269
3.22034e-269
3.98287e-269
1.20862e-257
9.48e-258
7.13345e-258
5.3541e-258
4.02686e-258
3.03027e-258
2.276e-258
1.70253e-258
1.26623e-258
9.35196e-259
6.85333e-259
4.98047e-259
3.588e-259
2.5618e-259
1.8125e-259
1.27055e-259
8.82336e-260
6.0695e-260
4.13509e-260
2.78973e-260
1.86338e-260
1.232e-260
8.06096e-261
5.21807e-261
3.34079e-261
2.11474e-261
1.32305e-261
8.17754e-262
4.99116e-262
3.00673e-262
1.78675e-262
1.04675e-262
6.04149e-263
3.43286e-263
1.91882e-263
1.05417e-263
5.68688e-264
3.0093e-264
1.55993e-264
7.90376e-265
3.893e-265
1.89446e-265
9.11233e-266
4.3338e-266
2.03859e-266
9.48686e-267
4.36857e-267
1.99095e-267
8.98168e-268
4.01135e-268
1.77383e-268
7.7675e-269
3.36886e-269
1.44788e-269
6.17687e-270
2.6318e-270
1.14485e-270
5.45795e-271
3.35139e-271
3.05911e-271
3.79052e-271
5.33094e-271
7.75154e-271
1.13007e-270
1.63765e-270
2.35376e-270
3.35356e-270
4.73631e-270
6.63167e-270
9.20783e-270
1.26825e-269
1.73387e-269
2.35485e-269
3.18114e-269
4.28162e-269
5.75396e-269
7.73778e-269
1.04215e-268
1.39654e-268
1.78057e-268
4.26506e-257
3.38914e-257
2.50805e-257
1.82404e-257
1.32589e-257
9.66966e-258
7.07222e-258
5.17857e-258
3.78921e-258
2.76574e-258
2.0107e-258
1.45418e-258
1.04518e-258
7.45956e-259
5.2832e-259
3.71113e-259
2.5843e-259
1.78333e-259
1.21903e-259
8.25172e-260
5.5294e-260
3.66668e-260
2.40537e-260
1.56047e-260
1.00076e-260
6.3421e-261
3.96991e-261
2.45341e-261
1.49618e-261
8.99876e-262
5.33461e-262
3.115e-262
1.79034e-262
1.01203e-262
5.6215e-263
3.06553e-263
1.63945e-263
8.58855e-264
4.40061e-264
2.19969e-264
1.06536e-264
5.10293e-265
2.41786e-265
1.13344e-265
5.25762e-266
2.4136e-266
1.0967e-266
4.93301e-267
2.19684e-267
9.68718e-268
4.23024e-268
1.82964e-268
7.83989e-269
3.33037e-269
1.40577e-269
5.94572e-270
2.59573e-270
1.28153e-270
8.56719e-271
8.56008e-271
1.10971e-270
1.58164e-270
2.30385e-270
3.3537e-270
4.85006e-270
6.95934e-270
9.90831e-270
1.40034e-269
1.96588e-269
2.74363e-269
3.81058e-269
5.27351e-269
7.28302e-269
1.00551e-268
1.39037e-268
1.92838e-268
2.68277e-268
3.726e-268
5.06943e-268
6.37305e-268
1.3182e-256
1.06879e-256
7.94851e-257
5.71592e-257
4.07058e-257
2.89783e-257
2.06825e-257
1.48018e-257
1.06118e-257
7.61105e-258
5.45326e-258
3.89794e-258
2.77617e-258
1.96792e-258
1.38707e-258
9.71282e-259
6.75181e-259
4.65616e-259
3.18349e-259
2.15676e-259
1.44709e-259
9.61096e-260
6.3154e-260
4.10384e-260
2.63585e-260
1.67254e-260
1.04792e-260
6.47949e-261
3.95146e-261
2.37525e-261
1.40637e-261
8.19618e-262
4.69786e-262
2.64599e-262
1.46306e-262
7.93371e-263
4.21433e-263
2.19005e-263
1.11155e-263
5.49409e-264
2.62357e-264
1.23973e-264
5.79747e-265
2.68326e-265
1.22924e-265
5.57451e-266
2.50274e-266
1.11255e-266
4.89744e-267
2.13514e-267
9.22057e-268
3.94498e-268
1.67278e-268
7.03607e-269
2.94454e-269
1.23935e-269
5.44863e-270
2.79484e-270
2.01882e-270
2.16077e-270
2.88881e-270
4.15746e-270
6.07454e-270
8.85899e-270
1.28419e-269
1.84927e-269
2.6466e-269
3.76739e-269
5.33933e-269
7.5425e-269
1.06335e-268
1.49818e-268
2.1125e-268
2.98496e-268
4.23007e-268
6.00934e-268
8.52853e-268
1.1967e-267
1.61817e-267
1.99257e-267
3.71628e-256
3.07041e-256
2.31324e-256
1.66517e-256
1.17519e-256
8.23775e-257
5.76946e-257
4.0465e-257
2.84339e-257
2.00081e-257
1.40864e-257
9.91187e-258
6.96288e-258
4.87779e-258
3.40413e-258
2.36435e-258
1.63283e-258
1.12028e-258
7.63e-259
5.15477e-259
3.45204e-259
2.28998e-259
1.50382e-259
9.77005e-260
6.27563e-260
3.98295e-260
2.49611e-260
1.54363e-260
9.41343e-261
5.65671e-261
3.34701e-261
1.94838e-261
1.11488e-261
6.26475e-262
3.45346e-262
1.86547e-262
9.862e-263
5.09529e-263
2.56812e-263
1.25876e-263
5.94732e-264
2.78116e-264
1.28732e-264
5.89835e-265
2.67542e-265
1.20147e-265
5.34253e-266
2.35262e-266
1.02612e-266
4.4336e-267
1.8981e-267
8.05376e-268
3.38838e-268
1.41511e-268
5.88828e-269
2.47331e-269
1.09732e-269
5.83544e-270
4.48929e-270
5.04932e-270
6.90263e-270
1.00282e-269
1.4742e-269
2.16304e-269
3.158e-269
4.58701e-269
6.63304e-269
9.55809e-269
1.37393e-268
1.97235e-268
2.83084e-268
4.0665e-268
5.8515e-268
8.4374e-268
1.21832e-267
1.75703e-267
2.51437e-267
3.52116e-267
4.69571e-267
5.67255e-267
9.79127e-256
8.21853e-256
6.28339e-256
4.55489e-256
3.20989e-256
2.23133e-256
1.54234e-256
1.06445e-256
7.34855e-257
5.07759e-257
3.51099e-257
2.42817e-257
1.6783e-257
1.15831e-257
7.97525e-258
5.47297e-258
3.73992e-258
2.54258e-258
1.71822e-258
1.15322e-258
7.681e-259
5.07286e-259
3.31955e-259
2.15064e-259
1.37844e-259
8.73408e-260
5.46664e-260
3.37724e-260
2.05777e-260
1.23556e-260
7.30449e-261
4.24789e-261
2.42767e-261
1.36204e-261
7.49352e-262
4.0378e-262
2.12808e-262
1.09537e-262
5.49578e-263
2.6789e-263
1.25685e-263
5.8361e-264
2.68238e-264
1.22044e-264
5.49735e-265
2.45185e-265
1.08294e-265
4.73765e-266
2.05335e-266
8.81868e-267
3.75407e-267
1.58457e-267
6.63551e-268
2.76045e-268
1.14571e-268
4.81583e-269
2.15775e-269
1.1828e-269
9.53994e-270
1.11173e-269
1.54737e-269
2.27243e-269
3.37215e-269
4.99747e-269
7.37807e-269
1.08518e-268
1.59125e-268
2.32838e-268
3.40289e-268
4.97179e-268
7.26742e-268
1.06335e-267
1.5575e-267
2.28204e-267
3.33774e-267
4.85135e-267
6.94758e-267
9.65367e-267
1.26778e-266
1.50724e-266
2.44904e-255
2.08232e-255
1.61429e-255
1.18115e-255
8.34727e-256
5.78303e-256
3.96385e-256
2.7026e-256
1.83851e-256
1.24982e-256
8.49557e-257
5.77459e-257
3.92374e-257
2.66377e-257
1.80559e-257
1.22107e-257
8.23212e-258
5.52805e-258
3.6945e-258
2.45523e-258
1.62112e-258
1.06256e-258
6.90775e-259
4.45043e-259
2.8391e-259
1.79185e-259
1.11786e-259
6.88755e-260
4.18733e-260
2.50959e-260
1.4813e-260
8.60244e-261
4.90991e-261
2.75112e-261
1.51148e-261
8.13193e-262
4.27827e-262
2.19753e-262
1.09984e-262
5.34528e-263
2.49859e-263
1.15576e-263
5.29127e-264
2.3979e-264
1.07585e-264
4.77982e-265
2.10329e-265
9.16894e-266
3.9609e-266
1.69611e-266
7.20197e-267
3.03374e-267
1.26862e-267
5.27446e-268
2.19052e-268
9.23672e-269
4.17863e-269
2.34434e-269
1.9548e-269
2.33742e-269
3.30605e-269
4.91657e-269
7.3861e-269
1.10898e-268
1.66045e-268
2.4794e-268
3.69453e-268
5.49775e-268
8.17566e-268
1.21565e-267
1.80788e-267
2.68882e-267
3.99643e-267
5.92585e-267
8.737e-267
1.27348e-266
1.81737e-266
2.50021e-266
3.23651e-266
3.79821e-266
5.87867e-255
5.05092e-255
3.96415e-255
2.9287e-255
2.08e-255
1.44072e-255
9.82633e-256
6.64065e-256
4.46414e-256
2.99227e-256
2.00252e-256
1.33887e-256
8.94466e-257
5.97021e-257
3.9798e-257
2.64826e-257
1.75802e-257
1.16346e-257
7.67055e-258
5.03393e-258
3.28581e-258
2.13143e-258
1.37283e-258
8.77206e-259
5.55569e-259
3.48441e-259
2.16208e-259
1.32602e-259
8.03048e-260
4.79741e-260
2.82417e-260
1.63651e-260
9.32381e-261
5.21666e-261
2.8626e-261
1.53853e-261
8.08696e-262
4.1504e-262
2.07555e-262
1.00791e-262
4.70758e-263
2.1754e-263
9.94828e-264
4.50313e-264
2.01809e-264
8.95652e-265
3.93761e-265
1.71538e-265
7.40747e-266
3.17197e-266
1.3475e-266
5.68195e-267
2.38003e-267
9.91995e-268
4.13451e-268
1.75268e-268
8.00142e-269
4.56353e-269
3.8902e-269
4.7418e-269
6.81012e-269
1.02722e-268
1.5657e-268
2.38681e-268
3.63115e-268
5.5127e-268
8.35559e-268
1.26501e-267
1.91372e-267
2.89328e-267
4.37062e-267
6.59222e-267
9.91348e-267
1.48258e-266
2.19578e-266
3.1995e-266
4.54079e-266
6.1834e-266
7.90344e-266
9.17819e-266
1.36495e-254
1.18276e-254
9.38165e-255
6.99488e-255
4.99656e-255
3.46639e-255
2.35817e-255
1.58363e-255
1.05457e-255
6.98452e-256
4.60971e-256
3.03523e-256
1.99511e-256
1.30951e-256
8.58237e-257
5.61524e-257
3.66633e-257
2.38773e-257
1.55018e-257
1.00261e-257
6.45557e-258
4.13478e-258
2.6323e-258
1.66422e-258
1.04399e-258
6.4921e-259
3.9982e-259
2.43614e-259
1.46707e-259
8.72264e-260
5.11458e-260
2.95418e-260
1.67882e-260
9.37478e-261
5.13721e-261
2.75861e-261
1.44941e-261
7.43878e-262
3.72163e-262
1.80884e-262
8.46163e-263
3.91561e-263
1.79296e-263
8.1262e-264
3.64658e-264
1.62072e-264
7.13689e-265
3.11498e-265
1.34813e-265
5.78812e-266
2.46661e-266
1.04398e-266
4.3923e-267
1.84025e-267
7.71687e-268
3.29485e-268
1.51729e-268
8.75042e-269
7.56301e-269
9.35603e-269
1.36398e-268
2.08935e-268
3.23598e-268
5.01541e-268
7.76084e-268
1.19871e-267
1.84848e-267
2.84644e-267
4.37716e-267
6.72004e-267
1.02932e-266
1.57102e-266
2.38442e-266
3.5873e-266
5.32437e-266
7.74203e-266
1.09191e-265
1.47269e-265
1.86195e-265
2.14391e-265
3.08399e-254
2.69097e-254
2.15377e-254
1.61917e-254
1.16337e-254
8.09136e-255
5.49887e-255
3.6764e-255
2.42988e-255
1.59314e-255
1.03864e-255
6.74402e-256
4.36585e-256
2.81959e-256
1.81722e-256
1.16886e-256
7.50243e-257
4.8041e-257
3.06781e-257
1.95272e-257
1.23822e-257
7.81672e-258
4.90914e-258
3.06481e-258
1.90043e-258
1.16941e-258
7.13396e-259
4.31039e-259
2.57673e-259
1.52235e-259
8.87876e-260
5.10585e-260
2.89146e-260
1.61039e-260
8.80874e-261
4.72538e-261
2.48217e-261
1.27457e-261
6.38484e-262
3.10987e-262
1.45968e-262
6.77684e-263
3.11319e-263
1.41562e-263
6.37401e-264
2.84296e-264
1.25663e-264
5.5071e-265
2.39403e-265
1.0329e-265
4.42562e-266
1.88442e-266
7.98164e-267
3.36911e-267
1.42444e-267
6.13545e-268
2.84981e-268
1.65597e-268
1.4431e-268
1.80668e-268
2.67335e-268
4.16214e-268
6.55634e-268
1.03388e-267
1.62792e-267
2.55831e-267
4.01247e-267
6.28024e-267
9.80653e-267
1.52669e-266
2.36707e-266
3.64888e-266
5.57832e-266
8.4269e-266
1.25152e-265
1.81441e-265
2.543e-265
3.40035e-265
4.25959e-265
4.87062e-265
6.81278e-254
5.9785e-254
4.82144e-254
3.65116e-254
2.63787e-254
1.84002e-254
1.25037e-254
8.33372e-255
5.47531e-255
3.55934e-255
2.29565e-255
1.47188e-255
9.39463e-256
5.97502e-256
3.78895e-256
2.39646e-256
1.51201e-256
9.51622e-257
5.97337e-257
3.73848e-257
2.33193e-257
1.449e-257
8.96385e-258
5.51704e-258
3.37581e-258
2.05188e-258
1.23777e-258
7.40336e-259
4.38602e-259
2.57095e-259
1.48937e-259
8.51666e-260
4.80116e-260
2.66474e-260
1.45409e-260
7.78964e-261
4.09038e-261
2.10185e-261
1.05477e-261
5.15273e-262
2.42987e-262
1.1334e-262
5.23144e-263
2.39039e-263
1.08171e-263
4.84999e-264
2.15561e-264
9.5022e-265
4.15665e-265
1.80548e-265
7.79214e-266
3.34407e-266
1.42854e-266
6.08593e-267
2.59864e-267
1.13066e-267
5.29882e-268
3.09674e-268
2.71243e-268
3.43109e-268
5.15307e-268
8.15835e-268
1.30768e-267
2.09856e-267
3.3623e-267
5.37443e-267
8.56808e-267
1.36185e-266
2.15679e-266
3.40015e-266
5.32811e-266
8.28207e-266
1.27337e-265
1.92896e-265
2.86395e-265
4.13841e-265
5.76623e-265
7.65205e-265
9.51134e-265
1.0814e-264
1.47709e-253
1.30228e-253
1.05695e-253
8.05467e-254
5.84858e-254
4.0917e-254
2.78179e-254
1.85002e-254
1.20967e-254
7.80713e-255
4.98809e-255
3.16207e-255
1.99219e-255
1.24897e-255
7.79859e-256
4.85277e-256
3.0105e-256
1.8623e-256
1.14878e-256
7.06587e-257
4.33249e-257
2.64735e-257
1.61139e-257
9.76509e-258
5.88796e-258
3.52987e-258
2.10237e-258
1.24288e-258
7.28621e-259
4.23128e-259
2.43139e-259
1.3808e-259
7.74028e-260
4.27714e-260
2.32657e-260
1.24398e-260
6.52792e-261
3.35648e-261
1.68768e-261
8.27293e-262
3.92276e-262
1.8401e-262
8.54281e-263
3.92695e-263
1.78816e-263
8.06989e-264
3.61136e-264
1.60347e-264
7.0681e-265
3.09515e-265
1.34745e-265
5.83649e-266
2.51809e-266
1.08416e-266
4.68107e-267
2.05958e-267
9.74502e-268
5.7264e-268
5.03628e-268
6.4336e-268
9.80835e-268
1.57946e-267
2.57637e-267
4.20722e-267
6.8566e-267
1.11411e-266
1.80391e-266
2.90872e-266
4.66662e-266
7.44003e-266
1.17671e-265
1.84194e-265
2.84479e-265
4.3175e-265
6.40511e-265
9.22501e-265
1.27853e-264
1.6856e-264
2.08153e-264
2.35556e-264
3.15291e-253
2.79051e-253
2.27693e-253
1.74456e-253
1.2724e-253
8.92691e-254
6.07358e-254
4.03301e-254
2.62688e-254
1.685e-254
1.06773e-254
6.70014e-255
4.1715e-255
2.5806e-255
1.58803e-255
9.72891e-256
5.93747e-256
3.61118e-256
2.18933e-256
1.32322e-256
7.97266e-257
4.78803e-257
2.86537e-257
1.70811e-257
1.0138e-257
5.98747e-258
3.51635e-258
2.05192e-258
1.18869e-258
6.82964e-259
3.88762e-259
2.18994e-259
1.21931e-259
6.70132e-260
3.63061e-260
1.93618e-260
1.01486e-260
5.21977e-261
2.62945e-261
1.29354e-261
6.16984e-262
2.91213e-262
1.36076e-262
6.2976e-263
2.88804e-263
1.31308e-263
5.92223e-264
2.65121e-264
1.17883e-264
5.20963e-265
2.29006e-265
1.00218e-265
4.37107e-266
1.90371e-266
8.31872e-267
3.70422e-267
1.77105e-267
1.04743e-267
9.2577e-268
1.19494e-267
1.84975e-267
3.02987e-267
5.02855e-267
8.35275e-267
1.38384e-266
2.28398e-266
3.75239e-266
6.13149e-266
9.95362e-266
1.60291e-265
2.55568e-265
4.0242e-265
6.23767e-265
9.4787e-265
1.40473e-264
2.01691e-264
2.78219e-264
3.64751e-264
4.47976e-264
5.05002e-264
6.64302e-253
5.89815e-253
4.83409e-253
3.72087e-253
2.72439e-253
1.91631e-253
1.30491e-253
8.65539e-254
5.61982e-254
3.58602e-254
2.25603e-254
1.40291e-254
8.64109e-255
5.28045e-255
3.20556e-255
1.93516e-255
1.16266e-255
6.95619e-256
4.14633e-256
2.46294e-256
1.45817e-256
8.6048e-257
5.06073e-257
2.96579e-257
1.73136e-257
1.00641e-257
5.82191e-258
3.34954e-258
1.91516e-258
1.0873e-258
6.12352e-259
3.41741e-259
1.88771e-259
1.0308e-259
5.55694e-260
2.95337e-260
1.54519e-260
7.9459e-261
4.0088e-261
1.97881e-261
9.49443e-262
4.50992e-262
2.12168e-262
9.88986e-263
4.56994e-263
2.09445e-263
9.52623e-264
4.3026e-264
1.93105e-264
8.61829e-265
3.82791e-265
1.69356e-265
7.47196e-266
3.2937e-266
1.45741e-266
6.57187e-267
3.1782e-267
1.89546e-267
1.68772e-267
2.2044e-267
3.46631e-267
5.77465e-267
9.74752e-267
1.64596e-266
2.77006e-266
4.63966e-266
7.72663e-266
1.27804e-265
2.09692e-265
3.40708e-265
5.47055e-265
8.65723e-265
1.34584e-264
2.04686e-264
3.03005e-264
4.33832e-264
5.95995e-264
7.77654e-264
9.50753e-264
1.06839e-263
1.38453e-252
1.23251e-252
1.01391e-252
7.83451e-253
5.75559e-253
4.05771e-253
2.7655e-253
1.83286e-253
1.18694e-253
7.54017e-254
4.71388e-254
2.90785e-254
1.77379e-254
1.07186e-254
6.42568e-255
3.82608e-255
2.26497e-255
1.33406e-255
7.82265e-256
4.56873e-256
2.65853e-256
1.54163e-256
8.90944e-257
5.13142e-257
2.94499e-257
1.68376e-257
9.5866e-258
5.43286e-258
3.06273e-258
1.71629e-258
9.55231e-259
5.27531e-259
2.88766e-259
1.56494e-259
8.38611e-260
4.43765e-260
2.31559e-260
1.18969e-260
6.00782e-261
2.97436e-261
1.43514e-261
6.85939e-262
3.24882e-262
1.52542e-262
7.10358e-263
3.28258e-263
1.50609e-263
6.8653e-264
3.11124e-264
1.4028e-264
6.29785e-265
2.81788e-265
1.258e-265
5.61417e-266
2.51616e-266
1.14944e-266
5.62861e-267
3.39417e-267
3.05602e-267
4.04842e-267
6.47039e-267
1.09607e-266
1.88063e-266
3.22577e-266
5.50965e-266
9.35581e-266
1.57765e-265
2.6387e-265
4.37102e-265
7.15833e-265
1.15642e-264
1.83787e-264
2.86399e-264
4.35833e-264
6.44482e-264
9.20447e-264
1.26006e-263
1.63755e-263
1.99448e-263
2.23539e-263
2.85965e-252
2.55116e-252
2.10515e-252
1.63195e-252
1.20233e-252
8.49347e-253
5.79338e-253
3.83729e-253
2.47959e-253
1.56917e-253
9.75632e-254
5.9757e-254
3.61368e-254
2.16164e-254
1.28106e-254
7.53141e-255
4.39722e-255
2.55192e-255
1.47323e-255
8.46535e-256
4.84397e-256
2.76117e-256
1.5683e-256
8.87704e-257
5.00756e-257
2.81493e-257
1.57655e-257
8.79452e-258
4.88415e-258
2.69894e-258
1.48295e-258
8.09529e-259
4.38637e-259
2.35661e-259
1.25394e-259
6.59983e-260
3.43141e-260
1.75985e-260
8.8885e-261
4.4106e-261
2.13879e-261
1.02814e-261
4.90095e-262
2.31741e-262
1.08744e-262
5.06644e-263
2.34495e-263
1.07886e-263
4.93728e-264
2.24917e-264
1.02075e-264
4.61928e-265
2.08679e-265
9.42868e-266
4.28032e-266
1.98141e-266
9.83536e-267
6.01638e-267
5.50385e-267
7.41673e-267
1.20565e-266
2.07599e-266
3.61803e-266
6.29819e-266
1.09067e-265
1.87565e-265
3.1992e-265
5.40478e-265
9.02994e-265
1.48915e-264
2.41854e-264
3.85775e-264
6.02354e-264
9.17023e-264
1.35468e-263
1.93055e-263
2.63496e-263
3.41283e-263
4.14365e-263
4.63417e-263
5.86208e-252
5.23901e-252
4.33415e-252
3.36906e-252
2.48812e-252
1.76068e-252
1.20184e-252
7.95677e-253
5.13215e-253
3.23717e-253
2.00313e-253
1.21925e-253
7.31645e-254
4.33685e-254
2.54348e-254
1.47799e-254
8.51968e-255
4.87669e-255
2.77429e-255
1.56972e-255
8.83885e-256
4.95555e-256
2.76744e-256
1.53987e-256
8.53869e-257
4.71886e-257
2.59903e-257
1.42645e-257
7.79935e-258
4.2467e-258
2.3015e-258
1.24066e-258
6.64718e-259
3.53646e-259
1.86637e-259
9.75956e-260
5.05047e-260
2.58297e-260
1.30354e-260
6.47723e-261
3.1539e-261
1.52373e-261
7.30571e-262
3.47725e-262
1.64356e-262
7.71808e-263
3.6027e-263
1.67262e-263
7.72859e-264
3.55671e-264
1.63149e-264
7.46614e-265
3.41254e-265
1.56077e-265
7.17583e-266
3.36645e-266
1.69593e-266
1.05631e-266
9.87274e-267
1.35781e-266
2.24651e-266
3.93019e-266
6.95137e-266
1.22685e-265
2.15176e-265
3.74355e-265
6.45153e-265
1.0998e-264
1.85147e-264
3.07206e-264
5.01243e-264
8.02016e-264
1.25436e-263
1.91021e-263
2.81936e-263
4.01039e-263
5.45985e-263
7.05182e-263
8.5396e-263
9.5336e-263
1.1942e-251
1.06883e-251
8.86095e-252
6.90348e-252
5.10869e-252
3.62037e-252
2.47287e-252
1.63655e-252
1.05395e-252
6.6293e-253
4.08521e-253
2.47295e-253
1.47387e-253
8.66568e-254
5.03478e-254
2.89488e-254
1.64932e-254
9.32155e-255
5.23109e-255
2.91729e-255
1.61793e-255
8.92895e-256
4.90599e-256
2.68486e-256
1.46397e-256
7.95536e-257
4.30891e-257
2.32634e-257
1.25181e-257
6.71247e-258
3.58557e-258
1.90706e-258
1.00933e-258
5.31191e-259
2.77734e-259
1.44123e-259
7.41458e-260
3.77705e-260
1.90245e-260
9.45576e-261
4.61805e-261
2.24012e-261
1.0794e-261
5.16755e-262
2.45871e-262
1.1631e-262
5.47289e-263
2.56295e-263
1.19524e-263
5.5547e-264
2.57445e-264
1.19099e-264
5.5057e-265
2.54805e-265
1.18611e-265
5.63961e-266
2.88714e-266
1.83877e-266
1.76648e-266
2.488e-266
4.1921e-266
7.44708e-266
1.33549e-265
2.38711e-265
4.23567e-265
7.44677e-265
1.29534e-264
2.22596e-264
3.77253e-264
6.29319e-264
1.03092e-263
1.65393e-263
2.59038e-263
3.94571e-263
5.81911e-263
8.26433e-263
1.12274e-262
1.44673e-262
1.74819e-262
1.94883e-262
2.42021e-251
2.16874e-251
1.80108e-251
1.40584e-251
1.0421e-251
7.39417e-252
5.05333e-252
3.34327e-252
2.15029e-252
1.34927e-252
8.28503e-253
4.99137e-253
2.95707e-253
1.72615e-253
9.94535e-254
5.66425e-254
3.19319e-254
1.78392e-254
9.88643e-255
5.4402e-255
2.97475e-255
1.61753e-255
8.75168e-256
4.71411e-256
2.52916e-256
1.35202e-256
7.20356e-257
3.82605e-257
2.026e-257
1.06955e-257
5.62836e-258
2.95161e-258
1.5419e-258
8.01924e-259
4.14942e-259
2.13431e-259
1.09025e-259
5.5249e-260
2.77388e-260
1.37731e-260
6.73788e-261
3.27765e-261
1.58548e-261
7.6273e-262
3.64995e-262
1.73798e-262
8.23796e-263
3.88885e-263
1.82934e-263
8.58054e-264
4.01604e-264
1.87719e-264
8.77229e-265
4.1061e-265
1.93445e-265
9.32194e-266
4.85679e-266
3.17781e-266
3.15773e-266
4.56928e-266
7.8434e-266
1.41383e-265
2.56804e-265
4.64373e-265
8.32684e-265
1.4778e-264
2.59194e-264
4.48579e-264
7.64732e-264
1.28166e-263
2.10681e-263
3.38773e-263
5.31212e-263
8.09305e-263
1.19277e-262
1.69173e-262
2.29423e-262
2.95055e-262
3.55905e-262
3.9628e-262
4.88399e-251
4.38082e-251
3.64337e-251
2.84825e-251
2.11427e-251
1.50171e-251
1.02677e-251
6.79138e-252
4.36318e-252
2.7322e-252
1.67252e-252
1.00346e-252
5.91383e-253
3.43035e-253
1.96184e-253
1.10793e-253
6.18698e-254
3.4205e-254
1.8742e-254
1.01878e-254
5.49871e-255
2.94916e-255
1.57288e-255
8.34689e-256
4.4099e-256
2.3207e-256
1.21695e-256
6.36125e-257
3.31536e-257
1.72309e-257
8.93085e-258
4.61588e-258
2.3785e-258
1.22148e-258
6.24867e-259
3.18225e-259
1.61208e-259
8.11598e-260
4.05612e-260
2.00907e-260
9.83036e-261
4.78884e-261
2.32248e-261
1.12138e-261
5.39125e-262
2.58145e-262
1.23145e-262
5.85504e-263
2.77599e-263
1.31322e-263
6.20263e-264
2.92737e-264
1.38198e-264
6.53834e-265
3.11594e-265
1.52185e-265
8.08344e-266
5.4621e-266
5.64911e-266
8.42084e-266
1.47271e-265
2.69143e-265
4.94618e-265
9.03818e-265
1.636e-264
2.92789e-264
5.17296e-264
9.00863e-264
1.54368e-263
2.5976e-263
4.28268e-263
6.89995e-263
1.08303e-262
1.65027e-262
2.43085e-262
3.44392e-262
4.66362e-262
5.9882e-262
7.21264e-262
8.02303e-262
9.82128e-251
8.81654e-251
7.34098e-251
5.74621e-251
4.27038e-251
3.03572e-251
2.07644e-251
1.37311e-251
8.8134e-252
5.50923e-252
3.36361e-252
2.01086e-252
1.17973e-252
6.80548e-253
3.8669e-253
2.16755e-253
1.20028e-253
6.57415e-254
3.56559e-254
1.9169e-254
1.02244e-254
5.41527e-255
2.85017e-255
1.49174e-255
7.76901e-256
4.02842e-256
2.08078e-256
1.07111e-256
5.49706e-257
2.81347e-257
1.43636e-257
7.31549e-258
3.71687e-258
1.88368e-258
9.51934e-259
4.79507e-259
2.40614e-259
1.2019e-259
5.97077e-260
2.9458e-260
1.43931e-260
7.01064e-261
3.40378e-261
1.64721e-261
7.9459e-262
3.8213e-262
1.83256e-262
8.76662e-263
4.18521e-263
1.99497e-263
9.50069e-264
4.52366e-264
2.15568e-264
1.03011e-264
4.96313e-265
2.45699e-265
1.33327e-265
9.35742e-266
1.01319e-265
1.55888e-265
2.77681e-265
5.14012e-265
9.54688e-265
1.76092e-264
3.21417e-264
5.79494e-264
1.03043e-263
1.80424e-263
3.10544e-263
5.24383e-263
8.66755e-263
1.39878e-262
2.19743e-262
3.3488e-262
4.93054e-262
6.97897e-262
9.43925e-262
1.21043e-261
1.4562e-261
1.61853e-261
1.96929e-250
1.76898e-250
1.47433e-250
1.15524e-250
8.59352e-251
6.11323e-251
4.18278e-251
2.76548e-251
1.77362e-251
1.10704e-251
6.74374e-252
4.01929e-252
2.34884e-252
1.34852e-252
7.61911e-253
4.24301e-253
2.33223e-253
1.26691e-253
6.80923e-254
3.62476e-254
1.91296e-254
1.00175e-254
5.20941e-255
2.69228e-255
1.38375e-255
7.07744e-256
3.6044e-256
1.8288e-256
9.2488e-257
4.66421e-257
2.34637e-257
1.17778e-257
5.89999e-258
2.94977e-258
1.47178e-258
7.32706e-259
3.63824e-259
1.80097e-259
8.88092e-260
4.35767e-260
2.12251e-260
1.03198e-260
5.00787e-261
2.42522e-261
1.17209e-261
5.65349e-262
2.722e-262
1.30854e-262
6.28302e-263
3.01452e-263
1.446e-263
6.93928e-264
3.33489e-264
1.60822e-264
7.82886e-265
3.92897e-265
2.18373e-265
1.60178e-265
1.825e-265
2.90111e-265
5.25983e-265
9.85143e-265
1.84719e-264
3.43551e-264
6.31703e-264
1.1463e-263
2.0497e-263
3.60583e-263
6.23011e-263
1.05516e-262
1.74786e-262
2.82471e-262
4.44074e-262
6.76836e-262
9.96153e-262
1.40896e-261
1.90376e-261
2.43866e-261
2.93096e-261
3.25556e-261
3.93936e-250
3.54054e-250
2.95311e-250
2.31595e-250
1.7241e-250
1.22719e-250
8.39879e-251
5.55201e-251
3.55836e-251
2.21821e-251
1.34869e-251
8.01731e-252
4.66962e-252
2.66992e-252
1.50116e-252
8.31255e-253
4.53973e-253
2.44832e-253
1.30542e-253
6.88879e-254
3.60138e-254
1.86691e-254
9.60442e-255
4.90742e-255
2.49223e-255
1.25885e-255
6.32839e-256
3.16818e-256
1.58041e-256
7.8596e-257
3.89857e-257
1.92957e-257
9.53259e-258
4.70174e-258
2.31558e-258
1.13873e-258
5.59089e-259
2.7398e-259
1.33944e-259
6.52698e-260
3.16395e-260
1.53295e-260
7.42235e-261
3.59104e-261
1.73595e-261
8.38495e-262
4.04716e-262
1.95238e-262
9.41586e-263
4.54142e-263
2.19159e-263
1.05883e-263
5.12633e-264
2.49244e-264
1.22509e-264
6.23472e-265
3.56034e-265
2.74715e-265
3.30663e-265
5.43062e-265
1.00111e-264
1.89506e-264
3.58336e-264
6.71319e-264
1.24232e-263
2.26701e-263
4.07319e-263
7.19459e-263
1.24715e-262
2.1176e-262
3.51428e-262
5.68621e-262
8.94481e-262
1.36348e-261
2.00613e-261
2.83573e-261
3.82851e-261
4.89991e-261
5.88442e-261
6.53268e-261
7.86517e-250
7.07195e-250
5.90232e-250
4.63204e-250
3.45049e-250
2.45715e-250
1.682e-250
1.11173e-250
7.12115e-251
4.43448e-251
2.69186e-251
1.59665e-251
9.27311e-252
5.28347e-252
2.9582e-252
1.6301e-252
8.85294e-253
4.7446e-253
2.51223e-253
1.31563e-253
6.82116e-254
3.50454e-254
1.78578e-254
9.03236e-255
4.53817e-255
2.26662e-255
1.12615e-255
5.56949e-256
2.7435e-256
1.34686e-256
6.59334e-257
3.22016e-257
1.56976e-257
7.64079e-258
3.71473e-258
1.80421e-258
8.75486e-259
4.24417e-259
2.05498e-259
9.93199e-260
4.78413e-260
2.30601e-260
1.11215e-260
5.3662e-261
2.59024e-261
1.25076e-261
6.04213e-262
2.92035e-262
1.41252e-262
6.83895e-263
3.31579e-263
1.61072e-263
7.84684e-264
3.8424e-264
1.9056e-264
9.83942e-265
5.79449e-265
4.734e-265
6.03435e-265
1.02282e-264
1.91461e-264
3.65877e-264
6.9696e-264
1.314e-263
2.44515e-263
4.48354e-263
8.08907e-263
1.43373e-262
2.49225e-262
4.24084e-262
7.04889e-262
1.14169e-261
1.79689e-261
2.73931e-261
4.02947e-261
5.69295e-261
7.68099e-261
9.82356e-261
1.17898e-260
1.30831e-260
1.56789e-249
1.41025e-249
1.17761e-249
9.24684e-250
6.89167e-250
4.90952e-250
3.36128e-250
2.22138e-250
1.42222e-250
8.84858e-251
5.36407e-251
3.17572e-251
1.83999e-251
1.04524e-251
5.83142e-252
3.19999e-252
1.72958e-252
9.21951e-253
4.85238e-253
2.52437e-253
1.29939e-253
6.62403e-254
3.34719e-254
1.67792e-254
8.35099e-255
4.12953e-255
2.03033e-255
9.93194e-256
4.83712e-256
2.34693e-256
1.13511e-256
5.47582e-257
2.63616e-257
1.26713e-257
6.08398e-258
2.91895e-258
1.39977e-258
6.71024e-259
3.21565e-259
1.53995e-259
7.36133e-260
3.52477e-260
1.69052e-260
8.12099e-261
3.90731e-261
1.88287e-261
9.08748e-262
4.39318e-262
2.12759e-262
1.03243e-262
5.02151e-263
2.44914e-263
1.19895e-263
5.90598e-264
2.95319e-264
1.54824e-264
9.44368e-265
8.21917e-265
1.11024e-264
1.93842e-264
3.67886e-264
7.089e-264
1.35907e-263
2.5763e-263
4.81698e-263
8.86916e-263
1.60578e-262
2.85448e-262
4.97365e-262
8.4786e-262
1.41112e-261
2.28748e-261
3.60184e-261
5.49141e-261
8.07619e-261
1.14057e-260
1.53805e-260
1.96596e-260
2.35824e-260
2.61604e-260
3.12159e-249
2.80852e-249
2.34618e-249
1.8431e-249
1.37423e-249
9.79279e-250
6.70545e-250
4.43098e-250
2.83577e-250
1.76301e-250
1.06754e-250
6.31035e-251
3.64878e-251
2.06757e-251
1.15002e-251
6.28844e-252
3.38505e-252
1.79608e-252
9.40444e-253
4.86472e-253
2.48851e-253
1.26005e-253
6.32102e-254
3.14413e-254
1.55193e-254
7.60734e-255
3.7059e-255
1.7954e-255
8.65619e-256
4.15603e-256
1.98835e-256
9.48513e-257
4.51428e-257
2.14475e-257
1.01775e-257
4.82608e-258
2.28777e-258
1.08453e-258
5.14231e-259
2.4386e-259
1.15572e-259
5.49065e-260
2.61514e-260
1.24881e-260
5.97918e-261
2.87037e-261
1.38166e-261
6.66899e-262
3.22819e-262
1.56737e-262
7.63495e-263
3.73294e-263
1.83364e-263
9.07457e-264
4.57166e-264
2.43597e-264
1.54649e-264
1.44123e-264
2.06052e-264
3.69601e-264
7.10029e-264
1.37812e-263
2.65665e-263
5.05961e-263
9.4985e-263
1.75502e-262
3.18699e-262
5.67926e-262
9.91521e-262
1.69283e-261
2.82051e-261
4.57542e-261
7.20706e-261
1.09889e-260
1.61588e-260
2.28131e-260
3.07503e-260
3.92874e-260
4.71073e-260
5.22427e-260
6.20867e-249
5.58725e-249
4.66899e-249
3.66917e-249
2.73667e-249
1.95063e-249
1.3358e-249
8.82617e-250
5.64676e-250
3.50845e-250
2.12244e-250
1.25297e-250
7.23273e-251
4.08979e-251
2.26906e-251
1.23704e-251
6.63607e-252
3.50728e-252
1.82841e-252
9.41213e-253
4.78911e-253
2.41094e-253
1.20191e-253
5.93845e-254
2.91031e-254
1.4158e-254
6.84194e-255
3.28686e-255
1.57074e-255
7.47209e-256
3.54063e-256
1.67225e-256
7.87729e-257
3.70322e-257
1.73848e-257
8.15436e-258
3.82358e-258
1.79312e-258
8.41331e-259
3.95011e-259
1.85502e-259
8.73697e-260
4.12817e-260
1.95713e-260
9.31128e-261
4.446e-261
2.13079e-261
1.0251e-261
4.95091e-262
2.40087e-262
1.16927e-262
5.72128e-263
2.8154e-263
1.39789e-263
7.08997e-264
3.84468e-264
2.55358e-264
2.5572e-264
3.85803e-264
7.08799e-264
1.37604e-263
2.68738e-263
5.20493e-263
9.95214e-263
1.87474e-262
3.47418e-262
6.32465e-262
1.1294e-261
1.97504e-261
3.37628e-261
5.63055e-261
9.13928e-261
1.44004e-260
2.19583e-260
3.22854e-260
4.55689e-260
6.14024e-260
7.84204e-260
9.39984e-260
1.04223e-259
1.23387e-248
1.11057e-248
9.28294e-249
7.29719e-249
5.44409e-249
3.88117e-249
2.65805e-249
1.75615e-249
1.12323e-249
6.97531e-250
4.21645e-250
2.48648e-250
1.4333e-250
8.09049e-251
4.47919e-251
2.43586e-251
1.30293e-251
6.86357e-252
3.56488e-252
1.82757e-252
9.25718e-253
4.63736e-253
2.29952e-253
1.12967e-253
5.50245e-254
2.65944e-254
1.27635e-254
6.08711e-255
2.88676e-255
1.36228e-255
6.40123e-256
2.99704e-256
1.39905e-256
6.51578e-257
3.02946e-257
1.40702e-257