/*--------------------------------*- C++ -*----------------------------------*\
  =========                 |
  \\      /  F ield         | OpenFOAM: The Open Source CFD Toolbox
   \\    /   O peration     | Website:  https://openfoam.org
    \\  /    A nd           | Version:  11
     \\/     M anipulation  |
\*---------------------------------------------------------------------------*/
FoamFile
{
    format      ascii;
    class       volScalarField;
    location    "100";
    object      C;
}
// * * * * * * * * * * * * * * * * * * * * * * * * * * * * * * * * * * * * * //

dimensions      [0 0 0 1 0 0 0];

internalField   nonuniform List<scalar> 
427520
(
-2.91202e-312
-1.00102e-311
4.12877e-312
4.58575e-312
-1.27044e-312
1.59481e-313
-5.83787e-312
-5.76014e-312
5.43695e-312
-6.95179e-313
-8.80612e-312
-5.60816e-312
-3.93106e-312
-3.45719e-312
1.28524e-312
-7.00738e-313
-7.11288e-312
3.44769e-312
4.70444e-312
-8.37739e-313
-1.13938e-311
3.32345e-312
9.45384e-312
4.0172e-313
-1.19272e-311
-7.07364e-312
2.10648e-312
1.59959e-312
8.64827e-312
-1.60966e-312
-2.52766e-312
1.85815e-312
5.66071e-312
3.60225e-313
-8.51682e-312
-5.95368e-312
-1.10465e-311
2.60203e-312
-8.73536e-312
-7.31767e-312
-4.44576e-312
-2.48124e-313
-2.77303e-312
2.48441e-312
6.49495e-312
9.66509e-312
8.54108e-313
7.07085e-312
4.84734e-312
6.61591e-312
6.70443e-312
5.30242e-312
9.89632e-312
-1.25157e-311
-3.9499e-312
1.68025e-312
-5.30451e-312
1.1306e-312
2.68715e-312
3.75919e-312
-2.2693e-313
1.1277e-312
1.62915e-312
-1.60027e-312
-3.67624e-312
9.05693e-313
2.47373e-313
-4.38301e-312
-7.14905e-312
-1.20863e-311
-4.44752e-312
-5.66088e-312
-2.38015e-312
-1.79775e-312
-4.53386e-312
-1.08943e-311
-6.8359e-312
-5.38978e-312
1.23987e-312
-1.83916e-312
7.78301e-312
-5.42464e-312
3.07224e-312
-3.22174e-312
-6.50253e-312
3.21724e-312
-4.40901e-312
-1.49243e-311
-9.23106e-312
-7.42734e-312
5.1183e-312
2.6028e-312
-7.61405e-312
-4.0866e-313
-2.5023e-312
-8.10508e-312
2.20659e-312
2.96064e-312
1.08367e-311
3.76072e-312
-1.26306e-311
-1.13351e-311
-7.97742e-314
1.27033e-311
-8.77103e-312
-2.21423e-311
-9.69355e-312
1.30821e-312
7.28753e-312
9.85874e-313
7.64542e-312
1.93927e-311
2.4329e-311
-3.76701e-312
-1.94791e-311
-1.83301e-311
-1.79027e-311
-3.46725e-312
-3.04491e-311
-1.81974e-311
-9.65315e-312
-1.14647e-312
1.32193e-311
1.2649e-311
-2.89754e-312
-9.01122e-314
-3.95539e-312
-3.69255e-312
-1.01947e-311
1.15054e-312
9.5665e-312
-7.50077e-312
-9.75209e-312
9.51933e-314
8.71762e-312
5.87964e-312
-2.48362e-311
-4.22026e-312
3.22457e-312
1.05775e-311
3.34281e-312
7.94824e-312
-1.1221e-311
-9.86691e-312
-5.1657e-312
-3.57797e-312
-3.30944e-312
7.38134e-313
1.71961e-312
3.07038e-312
9.5472e-312
1.0012e-311
3.32441e-312
-8.27008e-312
-7.16555e-312
3.06259e-312
1.02028e-313
-9.7562e-312
-7.22537e-312
-3.90219e-312
1.79547e-311
1.30852e-311
-2.86241e-312
-1.10785e-311
-3.8696e-312
-9.53316e-312
-1.04677e-311
-8.53221e-313
5.3418e-312
-3.74525e-312
1.86055e-312
1.97669e-312
2.76846e-312
-8.75215e-313
-6.08557e-312
-6.54369e-312
-4.23308e-313
-6.5559e-312
6.41002e-312
1.49022e-311
1.68997e-313
-3.29455e-312
-5.3794e-312
4.49977e-312
1.02566e-312
-3.08891e-311
-3.43656e-311
-2.01723e-312
2.22662e-311
-1.08394e-312
-2.97377e-312
2.09597e-311
2.5119e-311
-5.33623e-312
-1.03002e-311
-6.10148e-312
-1.24646e-311
-1.10513e-311
-2.53991e-311
-3.30753e-311
-6.92251e-313
-8.47993e-312
1.14325e-311
1.27012e-311
-5.82018e-312
-2.56112e-311
-4.42534e-312
-5.72903e-312
-1.55359e-311
-1.60284e-312
4.87467e-312
-4.90534e-312
5.92817e-312
6.1561e-312
2.04243e-311
-2.9832e-313
-1.40752e-311
-1.03295e-311
2.44284e-312
1.81558e-311
2.39169e-311
1.97707e-311
2.46568e-311
1.55785e-311
5.03313e-312
1.72218e-311
6.68108e-312
8.5347e-312
-3.4897e-313
1.00353e-312
1.32517e-312
-1.01738e-311
-5.3976e-312
-9.17184e-312
-1.58325e-311
-4.0192e-312
-4.25775e-312
-1.3872e-311
-1.68151e-311
1.93876e-311
4.27021e-311
4.13524e-311
1.06753e-311
-8.32918e-312
-6.38931e-312
-7.01466e-312
-1.23751e-311
2.90752e-312
2.03877e-311
1.09074e-311
-5.39651e-312
4.72331e-312
8.40628e-312
-3.69257e-312
-1.93173e-311
-1.39417e-311
-3.98279e-312
-2.74513e-312
1.08728e-311
1.30196e-311
1.91814e-311
1.25243e-311
1.05919e-311
4.05385e-312
2.66759e-312
-3.13936e-311
-2.94133e-311
-7.25541e-312
1.72825e-311
6.61255e-312
-8.81988e-312
1.00251e-311
3.24313e-311
3.28427e-313
-2.70767e-312
1.29119e-311
2.00519e-313
-1.1792e-311
-2.43934e-311
-3.61719e-311
9.91911e-313
-1.12293e-311
3.93807e-312
7.12721e-312
-2.29164e-311
-2.12093e-311
2.02289e-312
-7.43636e-312
-7.40229e-312
1.40494e-311
4.97871e-312
2.7554e-313
2.89291e-312
1.48427e-311
3.22144e-311
1.18454e-311
-3.84814e-313
-2.0038e-311
-1.2567e-311
-7.16452e-312
-4.32738e-312
1.98362e-311
3.60051e-311
2.47034e-311
3.08231e-313
4.79714e-312
-1.50951e-311
6.86076e-312
8.85941e-312
1.87534e-312
-2.42014e-313
-1.20277e-311
-1.15777e-311
-2.15977e-311
-1.60637e-311
9.86633e-313
-1.37161e-312
4.4627e-313
3.54459e-311
6.23198e-312
4.8629e-311
3.7341e-311
1.52847e-311
-1.22268e-311
7.92596e-312
8.42198e-312
-9.33659e-312
5.90585e-312
1.32848e-311
2.7403e-312
2.26303e-313
2.91945e-312
7.88612e-312
6.93615e-312
-9.18512e-312
-1.31526e-311
-9.48733e-312
-4.37414e-312
-1.27139e-311
-7.4137e-312
1.89344e-311
1.36282e-311
7.24237e-312
1.63445e-312
9.42758e-312
-2.47757e-311
-2.32207e-311
-7.43222e-312
2.65794e-312
-4.91366e-312
-6.68786e-312
-4.18628e-312
2.23372e-311
4.80576e-312
-7.89159e-312
-2.87143e-312
1.49756e-311
5.39743e-312
-2.71718e-311
-3.12063e-311
-4.92463e-312
-2.98728e-311
-4.4887e-312
5.81891e-312
-2.43273e-311
2.23412e-312
1.99094e-311
8.3401e-312
1.48674e-311
3.11674e-311
2.19556e-311
1.04364e-311
2.64491e-311
3.66998e-311
3.70222e-311
8.32321e-313
-1.42311e-312
-3.2345e-311
-3.09455e-311
-3.75542e-311
-2.07298e-311
7.78124e-312
2.22872e-311
3.0954e-311
-2.25216e-312
-1.12053e-311
6.22767e-312
3.82429e-311
3.95116e-311
1.49882e-311
-1.1285e-311
-1.52063e-311
3.77171e-312
-1.12699e-312
-6.838e-312
1.80846e-311
1.24087e-311
9.12005e-312
1.22941e-311
1.02674e-311
5.44848e-311
3.45003e-311
1.03174e-311
-2.3768e-312
1.28689e-311
4.85978e-312
-1.36885e-311
-1.0349e-311
-3.66233e-312
-7.97017e-312
-5.39844e-312
-2.00498e-312
2.11197e-312
1.96824e-311
7.29684e-312
-9.85957e-312
-6.36666e-312
-9.17671e-312
-1.67473e-311
-1.36369e-311
2.65905e-312
2.01441e-311
1.96592e-311
1.49582e-311
-1.08612e-313
-1.65445e-311
-1.13016e-311
-1.35664e-311
-2.03572e-311
-1.32823e-311
-9.98212e-312
-2.43979e-312
1.30292e-311
1.36672e-311
-1.14793e-311
-6.73706e-312
1.59157e-311
8.95989e-312
-2.14503e-311
-2.807e-311
-1.34689e-311
-2.81379e-311
6.31764e-313
1.46444e-311
-1.7426e-311
-1.02991e-311
8.04555e-312
9.0753e-312
2.83328e-311
2.66863e-311
2.50916e-311
3.12217e-311
3.70834e-311
3.91714e-311
1.35905e-311
-2.08874e-311
-1.27212e-311
-3.18277e-311
-3.43575e-311
-3.67061e-311
-2.36021e-311
3.51385e-312
2.63301e-311
1.3841e-311
-2.75357e-311
-3.54252e-311
-3.90336e-313
3.08541e-311
4.7831e-311
1.24611e-311
-1.4015e-311
-1.69118e-311
1.93362e-311
6.67905e-312
-3.91921e-312
1.62205e-311
8.79788e-312
1.29298e-311
2.85405e-311
3.42769e-311
5.92906e-311
2.80843e-311
2.68613e-311
1.5452e-311
2.20816e-311
9.24425e-312
-1.75263e-313
-1.33212e-311
-1.88266e-311
-2.59385e-311
-1.69814e-311
-9.08833e-312
-4.0428e-312
9.44187e-312
1.10086e-311
-1.67694e-311
-8.67122e-312
-2.19564e-312
-1.60787e-311
-1.60711e-311
-1.3734e-311
1.65645e-312
1.27916e-311
1.58429e-311
8.49205e-312
-9.55628e-312
-1.60977e-311
-1.89065e-311
-2.07717e-311
-1.22185e-311
-2.79008e-312
-6.14637e-312
8.98903e-312
1.37485e-311
1.25396e-312
2.02189e-312
6.22632e-312
2.36509e-312
-2.88069e-311
-2.02938e-311
-9.49054e-312
-1.57736e-311
2.14739e-311
2.13607e-311
-1.29809e-311
-2.68374e-311
-1.6116e-311
-1.06695e-311
1.43454e-311
2.35138e-311
1.65802e-311
3.3676e-311
1.92853e-311
1.97977e-312
-3.14273e-311
-4.59398e-311
-3.17081e-311
-2.70053e-311
-3.12102e-311
-4.11871e-311
-3.39096e-311
-1.78058e-311
1.42167e-311
1.20592e-311
-4.3752e-311
-6.3747e-311
-3.77746e-311
1.52657e-311
4.17419e-311
2.33791e-311
-2.48278e-311
-2.4455e-311
7.82019e-312
1.32653e-311
-3.81093e-313
1.3047e-311
-1.05789e-311
-1.97993e-311
-2.55605e-311
-7.4983e-311
1.49003e-311
1.8097e-311
2.4728e-311
9.67941e-312
1.60043e-311
3.03048e-311
6.33232e-312
-1.22163e-311
-1.96553e-311
-2.5674e-311
-7.17376e-312
-1.99449e-312
-8.04004e-312
-3.29159e-313
9.28638e-312
-5.13608e-312
-1.02573e-311
-9.24782e-312
-1.88237e-311
-1.80426e-311
-1.84367e-311
-8.89971e-312
9.86194e-313
1.92117e-311
2.39088e-311
1.00505e-311
-1.09213e-311
-2.03656e-311
-2.39245e-311
-8.40341e-312
-5.5857e-312
-1.21878e-311
2.4002e-314
1.18061e-312
1.59499e-311
1.28905e-311
1.85818e-311
-2.96449e-312
-2.21783e-311
-5.76472e-312
7.37722e-312
-1.71728e-312
2.92362e-311
2.55383e-311
1.01631e-311
-6.06654e-312
-2.49541e-311
-2.38974e-311
-6.17103e-313
1.04123e-311
-2.22638e-312
2.55089e-311
2.21842e-311
-2.36592e-312
-2.97521e-311
-2.39783e-311
3.74849e-312
1.77226e-311
-4.19891e-312
-4.26213e-311
-5.07142e-311
-4.09403e-311
5.16011e-312
1.68154e-311
-3.79037e-311
-7.76196e-311
-5.16473e-311
2.178e-311
6.16826e-311
1.99104e-311
-3.17051e-311
-3.28998e-311
-1.099e-311
-1.5524e-311
-1.06642e-312
9.93583e-312
-1.75608e-311
-7.32617e-311
-6.80887e-311
-7.29347e-311
1.45989e-311
1.72507e-311
6.43e-312
1.16609e-311
1.32739e-311
1.73754e-311
1.35686e-311
4.1004e-312
-2.10385e-311
-4.76111e-311
-3.86883e-311
-9.25282e-312
4.5523e-312
1.1399e-311
1.69472e-311
9.60094e-312
1.03042e-311
-1.0663e-311
-2.29781e-311
-3.18236e-311
-2.25382e-311
-1.13812e-311
3.00977e-312
2.31092e-311
1.90384e-311
1.99727e-311
2.16201e-312
-1.44722e-311
-3.8931e-312
-8.32825e-312
-1.71284e-311
-1.47723e-311
7.25189e-312
6.10814e-313
1.18461e-311
1.61437e-311
2.97051e-311
8.85601e-312
3.13097e-312
-4.55295e-312
1.0056e-311
2.40091e-312
2.54414e-311
5.01374e-311
2.06047e-311
4.84086e-312
-1.23193e-311
-3.75268e-311
-2.04932e-311
-4.85268e-312
1.00559e-311
2.73378e-311
5.32092e-311
4.02968e-311
3.82446e-312
-1.91984e-312
5.60804e-311
8.50298e-311
6.72729e-311
-4.61308e-312
-4.08708e-311
-5.23563e-311
-5.69961e-313
3.55373e-311
-2.58097e-311
-8.16734e-311
-7.886e-311
8.6817e-312
6.61866e-311
5.14063e-311
-7.21825e-312
-3.87493e-311
-2.52779e-311
-2.10624e-311
1.84188e-311
1.32981e-311
-5.00381e-311
-7.76497e-311
-1.0162e-310
-6.15517e-311
1.07471e-311
1.18385e-311
2.51164e-311
-1.4468e-312
-2.15052e-311
-1.43755e-312
3.1281e-311
3.29349e-311
-3.67703e-312
-5.28375e-311
-3.86779e-311
-1.6378e-311
-9.64987e-312
-1.2151e-311
-1.87605e-312
1.22169e-311
9.04617e-312
2.56825e-312
-4.24033e-312
-2.49529e-311
-1.85959e-311
-6.07222e-312
4.53621e-312
8.888e-312
1.69418e-311
2.56635e-311
2.05721e-311
6.30541e-312
2.27276e-312
-1.32597e-311
-2.60842e-311
-1.93349e-311
-1.10408e-311
6.32486e-312
1.72222e-312
1.0371e-311
6.03861e-312
1.48618e-311
1.56935e-311
-1.07381e-311
1.66337e-312
-5.16493e-312
1.17408e-311
5.86859e-311
3.24782e-311
2.06556e-311
6.17397e-312
-4.03275e-311
-3.4218e-311
-1.16531e-311
1.30459e-312
1.97392e-311
5.72493e-311
4.85684e-311
-3.21042e-312
7.08159e-313
7.48565e-311
1.23744e-310
1.21583e-310
3.22006e-311
-4.77293e-311
-7.58164e-311
-4.64354e-312
5.30452e-311
-4.53252e-312
-1.09158e-310
-1.47284e-310
-5.19932e-311
3.55315e-311
6.47137e-311
1.44381e-311
-2.26912e-311
-3.44363e-311
-2.57587e-311
2.6654e-311
3.10224e-311
-2.66771e-311
-5.41154e-311
-1.99816e-311
-1.03859e-311
8.5069e-312
2.90359e-311
4.08995e-311
-3.11173e-312
-3.85015e-311
-5.54134e-312
3.23283e-311
4.94493e-311
4.17572e-312
-2.6335e-311
-2.85235e-311
-2.27749e-311
-2.48538e-311
-1.81114e-311
-1.42438e-311
-3.10501e-312
-6.12583e-313
3.59412e-312
-3.53938e-312
-1.21626e-311
-1.36607e-311
-3.99944e-312
4.31936e-312
3.78494e-312
1.40045e-311
1.25399e-311
2.32215e-311
2.33841e-311
-7.44888e-312
-9.09926e-312
-3.49392e-311
-1.64661e-311
-1.64423e-311
2.3643e-312
1.22779e-311
-1.37969e-311
-1.53763e-311
4.53556e-312
7.50554e-312
-7.47492e-312
-1.24755e-311
-2.07331e-311
-4.1266e-312
6.0623e-311
4.0674e-311
4.44027e-311
3.31691e-311
-2.37535e-311
-2.71069e-311
-2.53322e-311
-3.58369e-311
-2.67464e-311
4.25244e-311
3.94696e-311
-3.10873e-311
-5.57325e-311
2.72242e-311
1.13728e-310
1.33751e-310
6.09461e-311
-5.81461e-311
-1.00095e-310
3.12176e-312
8.91012e-311
3.518e-311
-1.05671e-310
-1.80053e-310
-1.15484e-310
-5.98829e-312
5.51342e-311
2.72067e-311
-1.65238e-311
-1.06863e-311
1.17336e-311
7.48456e-311
8.16152e-311
4.36539e-311
6.20641e-312
1.73982e-311
-1.61123e-311
-8.06936e-312
-1.02053e-311
-1.20016e-311
-1.37316e-311
-4.79975e-311
-3.15393e-311
1.11836e-311
2.40838e-311
6.02079e-312
-1.72943e-311
-2.64372e-311
-2.9369e-311
-1.58999e-311
-7.86735e-312
-1.79145e-311
-2.50442e-311
-7.56843e-312
1.44621e-311
2.39984e-312
-1.72482e-311
-2.04987e-311
-9.83057e-312
5.82387e-312
1.27206e-311
8.59202e-312
1.701e-311
2.08845e-311
1.76302e-311
1.69327e-311
-5.66347e-312
-2.84407e-311
-3.31546e-311
-2.98704e-311
1.26931e-311
1.60319e-311
-1.35105e-311
-4.91067e-312
7.23293e-312
2.14655e-313
-7.30157e-312
-1.17431e-311
-3.11133e-311
-1.31046e-311
6.13494e-311
5.62376e-311
7.41981e-311
5.91218e-311
2.30887e-312
-2.99934e-311
-4.79465e-311
-7.53848e-311
-7.71364e-311
1.38579e-311
3.54536e-311
-4.35679e-311
-1.14297e-310
-4.47744e-311
7.16994e-311
1.47388e-310
1.0461e-310
-5.17154e-311
-1.07888e-310
-1.40095e-312
1.18921e-310
1.03467e-310
-6.29463e-311
-1.99604e-310
-1.49326e-310
-3.20325e-311
3.78123e-311
1.73137e-311
-8.82628e-312
1.01432e-311
4.78755e-311
9.54447e-311
1.03218e-310
1.04468e-310
5.93963e-311
-1.53544e-311
-6.56832e-311
-2.66984e-311
-4.165e-311
-4.2294e-311
-6.72052e-311
-4.99016e-311
-1.10992e-311
2.06204e-311
1.06565e-311
4.69133e-312
1.70931e-312
-3.00914e-311
-3.34408e-311
2.32742e-312
-4.40332e-312
-1.98509e-311
-2.76548e-311
-1.44197e-311
1.55545e-311
6.31169e-312
-1.32162e-311
-6.81752e-312
-1.57838e-311
1.45027e-311
1.78822e-311
3.13014e-311
3.45628e-311
2.5506e-311
2.8482e-311
2.44828e-311
7.55805e-312
-2.09611e-311
-4.01224e-311
-3.4711e-311
3.73234e-312
2.38688e-312
3.78063e-312
3.27756e-312
1.63325e-311
1.72617e-311
-1.52284e-313
-1.67736e-311
-4.82989e-311
-1.49623e-311
4.39744e-311
6.67929e-311
1.0865e-310
9.42714e-311
2.07615e-311
-4.41215e-311
-6.33941e-311
-1.07386e-310
-1.11736e-310
-2.5155e-311
4.83597e-311
-3.6905e-311
-1.24608e-310
-8.85239e-311
3.57086e-311
1.70796e-310
1.70684e-310
-1.03883e-311
-1.16005e-310
-2.77568e-311
1.33662e-310
1.83454e-310
2.38423e-311
-1.54694e-310
-1.66613e-310
-6.13107e-311
2.20116e-311
2.69956e-311
-2.59727e-312
1.09995e-311
2.11226e-311
7.35085e-311
7.69281e-311
9.54554e-311
6.78228e-311
2.92457e-311
2.46434e-311
-6.59369e-311
-5.7046e-311
-5.78876e-311
-5.63195e-311
-1.58973e-311
4.66324e-312
1.49831e-311
1.85231e-311
9.58471e-312
-2.02903e-311
-6.28734e-311
-4.85932e-311
-3.57309e-312
2.97892e-312
-1.67644e-311
-1.63366e-311
-3.57108e-312
2.09438e-311
7.31385e-312
-4.11606e-312
-6.83344e-312
-2.22728e-312
1.62807e-311
1.3261e-311
2.66854e-311
3.72681e-311
2.61776e-311
3.1558e-311
2.28606e-311
1.68615e-311
-1.30358e-311
-3.14761e-311
-3.02544e-311
-1.10876e-311
-3.66026e-312
2.98974e-312
1.10951e-311
3.25735e-312
6.32865e-312
3.36369e-312
-1.72106e-311
-5.20251e-311
-1.98853e-311
2.83709e-311
6.21753e-311
1.27219e-310
1.36131e-310
5.99186e-311
-2.4723e-311
-5.53649e-311
-1.18025e-310
-1.35469e-310
-3.16491e-311
6.68812e-311
-1.45785e-312
-1.01426e-310
-1.07763e-310
2.23433e-311
2.11954e-310
2.57336e-310
5.66273e-311
-1.20824e-310
-7.43618e-311
1.14907e-310
2.49197e-310
1.29156e-310
-7.07935e-311
-1.46581e-310
-5.60586e-311
2.30171e-311
1.94191e-311
-4.85414e-313
-1.17912e-311
-5.24797e-311
-2.80604e-311
1.43612e-311
6.86043e-311
6.28973e-311
6.34716e-311
6.7862e-311
-1.65326e-311
-2.45194e-311
-2.72798e-311
-4.35201e-311
-9.38263e-313
7.23221e-314
6.15594e-312
2.15261e-311
2.15958e-311
-1.41593e-311
-4.52651e-311
-3.29924e-311
-2.52074e-311
-1.7486e-311
-1.77861e-311
-8.07176e-312
-1.64267e-312
1.47884e-311
8.92079e-312
1.95135e-312
-1.54562e-311
-2.1266e-312
1.98153e-311
6.83859e-312
2.19698e-311
2.36061e-311
3.53537e-311
3.60739e-311
2.78144e-311
1.95957e-311
2.92153e-312
-3.88603e-311
-1.25866e-311
7.50741e-312
1.18079e-312
-1.50905e-311
6.16149e-312
1.69782e-311
1.05393e-311
5.1866e-312
1.42769e-312
-3.67906e-311
-3.18784e-311
-5.62546e-312
5.67427e-311
1.29957e-310
1.72216e-310
1.08999e-310
1.96371e-311
-1.89257e-311
-1.04087e-310
-1.62591e-310
-5.98691e-311
5.74922e-311
2.10007e-311
-9.27439e-311
-1.28749e-310
-1.18126e-311
2.27e-310
3.27899e-310
1.24305e-310
-1.2247e-310
-1.39938e-310
6.77019e-311
2.88139e-310
2.1588e-310
1.37491e-311
-1.04485e-310
-2.99438e-311
4.69427e-311
3.77705e-311
2.68063e-311
-4.14517e-311
-1.01942e-310
-1.02957e-310
-6.67308e-311
-3.17221e-312
4.04783e-311
5.23362e-311
7.07637e-311
9.04145e-311
3.23432e-311
-4.81969e-312
-3.21115e-311
-1.22786e-311
3.40655e-311
4.10985e-311
3.58112e-311
1.58314e-311
-1.67329e-311
-3.41733e-311
-3.27763e-311
-2.6175e-311
-1.25399e-311
-1.39865e-311
-6.39165e-312
-9.07669e-312
4.27807e-312
8.57645e-312
1.62428e-312
-3.19824e-311
-1.23525e-311
-8.17942e-312
2.95158e-312
1.92105e-311
1.35304e-311
3.35738e-311
4.11128e-311
4.02383e-311
2.10743e-311
1.53952e-311
-3.71867e-311
-2.09831e-311
5.57958e-312
-5.61723e-312
-2.45635e-311
-6.27942e-312
2.14675e-311
1.28443e-311
6.05496e-312
1.23861e-311
-2.34156e-311
-5.54543e-311
-3.3691e-311
4.30532e-311
1.28856e-310
2.06442e-310
1.58866e-310
7.33375e-311
2.86671e-311
-7.9624e-311
-1.84581e-310
-8.66627e-311
2.69648e-311
5.06436e-311
-6.03885e-311
-1.51263e-310
-7.45167e-311
1.92208e-310
3.49281e-310
1.76573e-310
-8.9623e-311
-1.75294e-310
2.8614e-311
2.68389e-310
2.62761e-310
7.59451e-311
-5.4229e-311
-2.20821e-311
5.67444e-311
7.84827e-311
6.61944e-311
-2.12598e-311
-1.19236e-310
-1.66016e-310
-1.42817e-310
-6.60832e-311
7.28038e-312
2.5972e-311
-2.54688e-311
9.7093e-311
4.59302e-311
2.0846e-311
-6.12387e-312
-2.45327e-312
2.67513e-311
4.8032e-311
3.70467e-311
2.50001e-311
2.24055e-311
-8.76004e-313
-1.83838e-311
-5.0663e-312
4.97933e-312
1.1368e-312
6.14168e-312
-6.73226e-312
8.73315e-312
1.17351e-311
9.60652e-312
-2.85341e-311
-1.40562e-311
-9.85954e-312
-4.74863e-312
2.43979e-311
9.38715e-312
2.95414e-311
3.50352e-311
2.65282e-311
2.19372e-311
1.62593e-311
-9.21821e-312
-1.79376e-311
-3.33824e-312
3.02067e-312
-2.43448e-311
-1.89134e-311
1.06671e-311
2.33665e-311
4.38311e-312
1.86045e-311
-2.17926e-311
-6.18417e-311
-7.04944e-311
-4.19768e-312
9.92561e-311
2.20186e-310
2.05112e-310
1.30792e-310
7.56395e-311
-5.3932e-311
-1.96106e-310
-1.28743e-310
-2.60472e-313
4.73746e-311
-5.15849e-311
-1.90524e-310
-1.68668e-310
1.27444e-310
3.57159e-310
2.27582e-310
-5.20806e-311
-1.99657e-310
-5.4131e-311
1.97753e-310
2.41784e-310
9.54965e-311
-2.25537e-311
1.3215e-312
6.56094e-311
1.1807e-310
1.13338e-310
2.03143e-311
-7.21025e-311
-1.37792e-310
-1.36487e-310
-7.19808e-311
-1.95642e-311
-4.65457e-311
-4.60023e-311
8.9634e-311
4.88558e-311
5.03785e-311
2.71807e-311
-3.86268e-312
1.66264e-311
2.51633e-311
5.24502e-311
3.61802e-311
3.62205e-311
1.4263e-311
-1.38859e-311
-1.39592e-312
1.81513e-311
1.65606e-311
1.13214e-311
7.71873e-312
1.52075e-311
1.22226e-311
1.34033e-311
-7.99509e-312
-9.49195e-313
5.17669e-312
4.00586e-312
3.30339e-311
2.56563e-311
1.22448e-311
1.17268e-311
3.4054e-311
2.53599e-311
3.24356e-311
4.52411e-312
-4.46907e-312
-5.39806e-312
1.17949e-311
-9.83771e-312
-5.49798e-312
2.3544e-312
2.52803e-311
1.59268e-311
2.31996e-311
-2.24756e-311
-8.34705e-311
-9.52402e-311
-5.68209e-311
6.50256e-311
2.12451e-310
2.23651e-310
1.75611e-310
1.45455e-310
-1.09514e-311
-1.94248e-310
-1.62829e-310
-3.05973e-311
3.15025e-311
-3.86722e-311
-1.97035e-310
-2.61283e-310
1.72899e-311
3.2572e-310
2.76095e-310
3.16811e-313
-2.21636e-310
-1.53996e-310
9.82791e-311
1.88216e-310
1.01311e-310
-3.80156e-312
-3.33013e-312
4.08382e-311
1.09261e-310
1.54497e-310
1.08481e-310
6.76333e-312
-8.00707e-311
-1.11807e-310
-6.19202e-311
-1.81638e-311
-6.35024e-311
-2.78996e-311
8.04664e-311
6.09473e-311
5.96326e-312
-7.19634e-312
-7.05473e-312
-8.53477e-313
5.0398e-311
4.8946e-311
5.69139e-311
3.156e-311
-3.98238e-312
-3.86597e-311
-2.71501e-311
-2.45812e-312
7.7727e-312
6.87784e-312
1.94579e-311
6.91904e-312
7.68605e-312
1.20392e-312
5.25388e-312
2.8326e-312
8.79724e-312
2.39584e-312
3.10333e-311
1.5096e-311
7.0635e-312
1.54881e-311
2.88873e-311
2.20208e-311
3.35709e-311
4.81479e-312
-8.95241e-313
-5.40154e-312
-5.23883e-312
-1.8741e-311
-9.21589e-312
1.6436e-311
3.33023e-311
2.67914e-311
3.18644e-311
-1.62936e-311
-8.55e-311
-1.1888e-310
-1.0701e-310
2.10894e-311
1.90314e-310
2.36583e-310
2.21541e-310
2.08991e-310
3.56529e-311
-1.64341e-310
-1.5933e-310
-4.84137e-311
2.05289e-311
-3.34854e-311
-2.21351e-310
-3.3298e-310
-8.1763e-311
2.62896e-310
3.03886e-310
4.52403e-311
-2.22977e-310
-1.99762e-310
2.81496e-311
1.27781e-310
6.66309e-311
-1.93157e-311
-6.344e-311
-1.5873e-311
6.80734e-311
1.73591e-310
1.86897e-310
7.0245e-311
-4.59486e-311
-7.92093e-311
-4.08784e-311
-3.67593e-311
-9.73154e-311
-1.01158e-310
5.04258e-311
6.97227e-311
3.91027e-311
1.91528e-311
-1.65966e-312
-1.95965e-311
-6.04776e-312
2.53456e-311
3.90054e-311
2.6181e-311
-1.08198e-311
-4.36933e-311
-2.64593e-311
-2.47142e-311
3.59086e-312
8.77466e-312
1.22884e-311
7.73595e-312
1.09423e-311
1.00551e-311
1.70573e-311
-1.33195e-312
1.88524e-312
-9.64552e-312
1.3678e-311
1.82505e-311
2.64649e-312
1.44395e-311
1.34086e-311
2.24712e-311
3.74728e-311
3.08937e-312
4.05538e-312
7.90686e-312
-1.03953e-311
-2.34954e-311
-1.39418e-311
1.14318e-311
4.23566e-311
5.41469e-311
4.18962e-311
6.42166e-312
-7.37778e-311
-1.34395e-310
-1.57382e-310
-3.37412e-311
1.44322e-310
2.33847e-310
2.45168e-310
2.66753e-310
8.4315e-311
-1.30127e-310
-1.60961e-310
-7.2928e-311
1.48816e-311
-1.76527e-311
-2.29796e-310
-3.89454e-310
-1.86755e-310
1.88345e-310
3.06807e-310
9.01219e-311
-1.88199e-310
-2.24655e-310
-2.67994e-311
9.86455e-311
4.23508e-311
-3.84739e-311
-9.63328e-311
-7.35276e-311
1.22571e-311
1.51049e-310
2.09397e-310
1.56599e-310
2.45158e-311
-1.71787e-312
-2.69246e-311
-6.29653e-312
3.43241e-312
1.36366e-311
4.13586e-311
3.93079e-311
1.98795e-311
2.87182e-311
4.59326e-312
-1.99041e-311
-1.78795e-311
2.33006e-311
3.99672e-311
4.26248e-311
1.23834e-311
-2.84355e-311
-2.92551e-311
-1.92268e-311
6.10897e-312
2.4899e-311
1.66834e-311
9.55537e-312
-1.79326e-312
-6.08445e-312
6.84461e-312
-7.63736e-313
4.41148e-312
-7.76984e-312
1.30416e-311
1.87507e-311
6.08336e-312
2.88631e-312
4.03541e-313
1.43095e-311
2.71803e-311
1.28741e-311
1.25513e-311
8.11468e-312
2.66254e-312
-2.72196e-311
-2.41659e-311
-1.9398e-312
4.36328e-311
7.64824e-311
5.39668e-311
2.1436e-311
-7.7393e-311
-1.5074e-310
-2.02754e-310
-1.11241e-310
8.33935e-311
2.07203e-310
2.61408e-310
2.9668e-310
1.44448e-310
-9.20438e-311
-1.77516e-310
-1.10767e-310
8.22145e-313
-2.26948e-312
-2.2739e-310
-4.36159e-310
-2.96452e-310
9.73935e-311
2.98731e-310
1.45873e-310
-1.36714e-310
-2.07647e-310
-6.04793e-311
8.15229e-311
5.74666e-311
-4.77852e-311
-1.17014e-310
-1.29546e-310
-5.87047e-311
9.38962e-311
2.07066e-310
1.86514e-310
9.09343e-311
6.31532e-311
4.04688e-311
5.04941e-311
9.31567e-311
7.5933e-311
1.11737e-311
-2.62501e-311
-1.56489e-311
-1.43415e-311
-3.72634e-311
-1.81625e-311
1.20967e-311
3.73853e-311
4.23953e-311
6.24011e-311
2.97284e-311
-1.3065e-311
-1.49002e-311
-1.15265e-311
8.05376e-312
2.36874e-311
2.1293e-311
2.14674e-311
4.01004e-312
7.61163e-312
1.95969e-312
1.57532e-312
5.12927e-312
-4.2144e-312
4.02093e-312
2.28586e-311
-2.63375e-312
-7.65708e-312
-2.70009e-312
2.2369e-311
1.85835e-311
1.24412e-311
-1.47041e-312
-5.27325e-312
4.0152e-312
-1.59817e-311
-1.75067e-311
-7.961e-312
3.10428e-311
6.66439e-311
5.58311e-311
2.30793e-311
-5.97988e-311
-1.73262e-310
-2.48205e-310
-1.91427e-310
2.45148e-311
1.61284e-310
2.44447e-310
3.14488e-310
2.05881e-310
-3.86404e-311
-1.68541e-310
-1.21291e-310
-3.06932e-312
1.97438e-311
-2.02299e-310
-4.71522e-310
-3.82132e-310
3.84866e-312
2.60919e-310
1.94964e-310
-8.22319e-311
-1.7812e-310
-3.24373e-311
1.15917e-310
1.02317e-310
-1.35058e-311
-9.76736e-311
-1.57312e-310
-1.2837e-310
1.43553e-311
1.80789e-310
2.25285e-310
1.65491e-310
1.47488e-310
1.33439e-310
1.1779e-310
1.1343e-310
1.1027e-310
-6.811e-311
-7.31868e-311
-4.82897e-311
-6.27703e-311
-6.70869e-311
-3.23475e-311
-2.55212e-311
1.37119e-311
3.151e-311
6.89585e-311
4.34576e-311
1.28828e-311
-1.12521e-311
-7.6143e-312
2.80819e-311
2.12744e-311
1.0753e-311
1.07909e-311
3.99783e-312
1.11988e-311
4.41718e-312
1.11495e-311
-8.91895e-312
4.43515e-312
9.73498e-312
2.80796e-311
-9.28611e-312
-1.70247e-312
-1.34101e-311
-2.49699e-312
1.18646e-311
7.10432e-312
4.85943e-313
2.6975e-312
4.51677e-312
-1.80016e-311
-3.45793e-311
-8.57245e-312
3.03665e-311
6.34975e-311
5.40222e-311
3.28749e-311
-2.61465e-311
-1.56854e-310
-2.72644e-310
-2.49212e-310
-5.16481e-311
1.08456e-310
2.14082e-310
3.24719e-310
2.57107e-310
1.24106e-311
-1.42711e-310
-1.31771e-310
5.12777e-312
3.62104e-311
-1.61025e-310
-4.66264e-310
-4.52266e-310
-9.10778e-311
2.17658e-310
2.04304e-310
-3.98509e-311
-1.52399e-310
6.65141e-313
1.3108e-310
1.44248e-310
4.80884e-311
-2.76839e-311
-1.35425e-310
-1.53766e-310
-5.11411e-311
9.16826e-311
1.91356e-310
1.7007e-310
1.70665e-310
1.32175e-310
4.96286e-311
-3.73117e-312
-2.41897e-312
-3.10365e-311
-4.10879e-311
-6.26033e-311
-4.12492e-311
-6.7852e-311
-8.68287e-311
-5.87754e-311
-4.61516e-312
2.91156e-311
8.32857e-311
5.19372e-311
2.26536e-311
-1.92398e-311
-1.31089e-311
1.06301e-311
2.03125e-311
1.30799e-311
1.74668e-311
1.08136e-311
1.48557e-311
2.61989e-311
1.6913e-311
-8.21437e-312
-5.75252e-312
9.65627e-312
2.41104e-311
-1.23142e-311
-6.33086e-312
-1.99558e-311
-4.23313e-311
-5.25456e-312
5.4488e-312
7.29322e-312
8.81907e-312
1.61037e-311
-1.60248e-311
-3.82929e-311
-3.87254e-312
3.00407e-311
6.10403e-311
6.04899e-311
5.76274e-311
1.49521e-312
-1.33996e-310
-2.89604e-310
-2.88122e-310
-1.29583e-310
3.72344e-311
1.71414e-310
3.14945e-310
2.9336e-310
7.23413e-311
-1.05376e-310
-1.01024e-310
1.58724e-311
6.99768e-311
-1.13481e-310
-4.29911e-310
-5.01299e-310
-1.93068e-310
1.6114e-310
1.94908e-310
1.60063e-312
-1.37952e-310
2.91471e-312
1.48573e-310
1.82096e-310
9.39542e-311
3.04421e-311
-9.8102e-311
-1.82251e-310
-1.20129e-310
-1.75831e-312
1.44205e-310
1.75178e-310
1.37065e-310
5.9939e-311
-1.00129e-311
-8.25744e-311
-8.86486e-311
1.29203e-310
7.41917e-311
7.93466e-313
-2.16446e-311
-1.02435e-310
-1.1669e-310
-1.15502e-310
-4.14556e-311
-1.87466e-311
3.89681e-311
4.83377e-311
3.21339e-311
-1.78737e-311
-1.10345e-311
7.88186e-312
9.55524e-312
1.97954e-311
2.7012e-311
6.55421e-312
2.34528e-311
1.37078e-311
1.72874e-311
2.391e-312
-5.41077e-312
1.35045e-311
1.84057e-311
4.91059e-312
-1.35257e-311
-2.63785e-311
-4.07454e-311
-1.14231e-311
-5.453e-312
-7.65836e-313
8.1004e-312
1.19776e-311
-1.5071e-311
-4.13891e-311
-5.16445e-312
1.92009e-311
5.37298e-311
5.86723e-311
7.09409e-311
2.79409e-311
-9.99425e-311
-2.92439e-310
-3.38053e-310
-1.97204e-310
-3.4155e-311
1.0857e-310
2.98068e-310
3.3191e-310
1.33792e-310
-6.09292e-311
-5.55057e-311
2.84016e-311
9.0004e-311
-4.79966e-311
-4.01646e-310
-5.28675e-310
-2.66017e-310
8.51485e-311
1.722e-310
4.10162e-312
-1.29343e-310
3.02802e-313
1.59926e-310
2.09761e-310
1.28528e-310
7.95893e-311
-3.37293e-311
-1.54999e-310
-1.60989e-310
-7.33529e-311
5.69408e-311
6.26168e-311
-5.9313e-312
-3.9891e-311
-7.16324e-311
-1.01273e-310
-1.10085e-310
1.67894e-310
1.40335e-310
4.77117e-311
-7.91283e-312
-8.70504e-311
-1.36741e-310
-1.42409e-310
-8.92404e-311
-6.86501e-311
1.29582e-311
3.84654e-311
3.67546e-311
1.55573e-311
2.09848e-311
2.13261e-312
1.07063e-311
1.62331e-311
6.52688e-312
-3.59954e-312
-2.55544e-312
4.81002e-312
1.25248e-312
-6.63497e-313
-7.63511e-312
1.6682e-311
1.57819e-311
-1.00366e-311
-2.38739e-311
-4.21316e-311
-4.78416e-311
-1.95474e-311
-2.00864e-311
-7.90623e-312
7.1242e-312
8.87757e-312
-1.24047e-311
-4.75936e-311
-2.66006e-311
1.7242e-311
2.69757e-311
5.83118e-311
7.2681e-311
5.7249e-311
-6.31784e-311
-2.74286e-310
-3.59321e-310
-2.53938e-310
-9.20463e-311
4.99851e-311
2.7015e-310
3.46445e-310
1.90273e-310
-2.28091e-313
-3.59385e-311
4.22178e-311
1.49408e-310
2.85117e-311
-3.46106e-310
-5.43214e-310
-3.51382e-310
-3.3842e-312
1.24754e-310
-2.05201e-311
-1.3921e-310
-1.07421e-311
1.65513e-310
2.38321e-310
1.70683e-310
1.22162e-310
3.20425e-311
-9.33058e-311
-1.59837e-310
-1.1566e-310
-4.56808e-311
-4.27391e-311
-7.26663e-311
-8.01398e-311
-8.20873e-311
-1.07504e-310
-6.07389e-311
1.95251e-310
1.46685e-310
1.05039e-310
2.5104e-311
-3.42429e-311
-1.41033e-310
-1.75645e-310
-1.41962e-310
-1.04686e-310
-2.19791e-311
2.52665e-311
3.84591e-311
2.4267e-311
3.64625e-311
1.65538e-311
9.42669e-312
-4.80209e-312
1.18033e-311
2.53541e-312
-9.11876e-312
-4.28421e-312
-1.32624e-311
-4.23861e-312
-1.1652e-313
2.33655e-311
1.34581e-311
-9.25747e-312
-3.90046e-311
-6.11983e-311
-5.83733e-311
-4.47796e-311
-2.74742e-311
-7.53363e-312
5.73541e-312
3.81101e-312
-9.92857e-312
-5.86567e-311
-3.122e-311
1.40577e-312
1.11695e-311
5.21044e-311
8.15187e-311
7.81268e-311
-2.91147e-311
-2.35319e-310
-3.64038e-310
-3.09562e-310
-1.62345e-310
2.84696e-313
2.35321e-310
3.56702e-310
2.36177e-310
4.9331e-311
-2.21613e-311
6.44441e-311
1.90567e-310
9.37287e-311
-2.77304e-310
-5.22658e-310
-4.04217e-310
-7.75659e-311
8.5681e-311
-5.6804e-311
-1.55772e-310
-4.06774e-311
1.50554e-310
2.33972e-310
2.21647e-310
2.01374e-310
1.34559e-310
-2.94243e-311
-1.35243e-310
-1.10073e-310
-7.85669e-311
-1.08454e-310
-1.24097e-310
-9.10941e-311
-1.23964e-310
-1.37722e-310
-1.13831e-310
1.64566e-310
1.66413e-310
1.6538e-310
1.20204e-310
5.29946e-311
-6.10706e-311
-1.8788e-310
-1.96539e-310
-1.53399e-310
-8.02205e-311
8.6759e-313
7.9035e-312
3.26919e-311
2.66281e-311
1.19807e-311
6.64785e-312
1.80742e-311
2.33438e-311
-2.28014e-312
-7.83365e-312
-7.32063e-312
-5.18311e-312
-1.82617e-311
6.79316e-312
2.77752e-311
2.63354e-311
8.2039e-312
-2.69528e-311
-6.96086e-311
-8.56757e-311
-6.43244e-311
-2.99446e-311
-1.24149e-311