/*--------------------------------*- C++ -*----------------------------------*\
  =========                 |
  \\      /  F ield         | OpenFOAM: The Open Source CFD Toolbox
   \\    /   O peration     | Website:  https://openfoam.org
    \\  /    A nd           | Version:  11
     \\/     M anipulation  |
\*---------------------------------------------------------------------------*/
FoamFile
{
    format      ascii;
    class       volScalarField;
    location    "620";
    object      p;
}
// * * * * * * * * * * * * * * * * * * * * * * * * * * * * * * * * * * * * * //

dimensions      [0 2 -2 0 0 0 0];

internalField   nonuniform List<scalar> 
427520
(
3.0797
3.03538
3.00453
2.98701
2.97553
2.96716
2.96095
2.95631
2.9528
2.95008
2.94795
2.94624
2.94485
2.9437
2.94274
2.94193
2.94123
2.94063
2.9401
2.93965
2.93924
2.93888
2.93857
2.93829
2.93804
2.93781
2.93761
2.93744
2.93728
2.93714
2.93702
2.93691
2.93682
2.93674
2.93667
2.93662
2.93658
2.93654
2.93652
2.93651
2.93651
2.93652
2.93654
2.93658
2.93662
2.93667
2.93674
2.93682
2.93691
2.93702
2.93714
2.93728
2.93744
2.93761
2.93781
2.93804
2.93829
2.93857
2.93888
2.93924
2.93965
2.9401
2.94063
2.94123
2.94193
2.94274
2.9437
2.94485
2.94624
2.94795
2.95008
2.9528
2.95631
2.96095
2.96716
2.97553
2.98701
3.00453
3.03538
3.0797
2.98264
2.97965
2.9752
2.97037
2.96575
2.96158
2.95795
2.95487
2.95227
2.95008
2.94823
2.94668
2.94536
2.94423
2.94326
2.94242
2.9417
2.94107
2.94051
2.94002
2.93959
2.93921
2.93887
2.93857
2.9383
2.93806
2.93785
2.93766
2.93749
2.93734
2.93721
2.93709
2.93699
2.93691
2.93684
2.93678
2.93673
2.9367
2.93667
2.93666
2.93666
2.93667
2.9367
2.93673
2.93678
2.93684
2.93691
2.93699
2.93709
2.93721
2.93734
2.93749
2.93766
2.93785
2.93806
2.9383
2.93857
2.93887
2.93921
2.93959
2.94002
2.94051
2.94107
2.9417
2.94242
2.94326
2.94423
2.94536
2.94668
2.94823
2.95008
2.95227
2.95487
2.95795
2.96158
2.96575
2.97037
2.9752
2.97965
2.98264
2.95802
2.96008
2.96107
2.96022
2.95847
2.95644
2.95439
2.95244
2.95064
2.94901
2.94755
2.94627
2.94513
2.94413
2.94325
2.94247
2.94179
2.94118
2.94064
2.94016
2.93973
2.93935
2.93901
2.93871
2.93844
2.93819
2.93798
2.93778
2.93761
2.93746
2.93732
2.9372
2.9371
2.93701
2.93694
2.93688
2.93683
2.9368
2.93677
2.93676
2.93676
2.93677
2.9368
2.93683
2.93688
2.93694
2.93701
2.9371
2.9372
2.93732
2.93746
2.93761
2.93778
2.93798
2.93819
2.93844
2.93871
2.93901
2.93935
2.93973
2.94016
2.94064
2.94118
2.94179
2.94247
2.94325
2.94413
2.94513
2.94627
2.94755
2.94901
2.95064
2.95244
2.95439
2.95644
2.95847
2.96022
2.96107
2.96008
2.95802
2.94902
2.95103
2.9525
2.95279
2.95235
2.95153
2.95051
2.94941
2.94829
2.94721
2.94618
2.94522
2.94434
2.94354
2.9428
2.94214
2.94154
2.941
2.94052
2.94008
2.93968
2.93932
2.939
2.93871
2.93845
2.93821
2.938
2.93781
2.93764
2.93749
2.93736
2.93725
2.93714
2.93706
2.93698
2.93692
2.93688
2.93684
2.93682
2.93681
2.93681
2.93682
2.93684
2.93688
2.93692
2.93698
2.93706
2.93714
2.93725
2.93736
2.93749
2.93764
2.93781
2.938
2.93821
2.93845
2.93871
2.939
2.93932
2.93968
2.94008
2.94052
2.941
2.94154
2.94214
2.9428
2.94354
2.94434
2.94522
2.94618
2.94721
2.94829
2.94941
2.95051
2.95153
2.95235
2.95279
2.9525
2.95103
2.94902
2.94404
2.94561
2.94694
2.94758
2.94772
2.94753
2.94713
2.94658
2.94595
2.94528
2.9446
2.94394
2.94329
2.94268
2.94211
2.94158
2.94108
2.94063
2.94021
2.93983
2.93948
2.93916
2.93887
2.9386
2.93836
2.93814
2.93795
2.93777
2.93761
2.93747
2.93734
2.93723
2.93713
2.93705
2.93698
2.93692
2.93688
2.93684
2.93682
2.93681
2.93681
2.93682
2.93684
2.93688
2.93692
2.93698
2.93705
2.93713
2.93723
2.93734
2.93747
2.93761
2.93777
2.93795
2.93814
2.93836
2.9386
2.93887
2.93916
2.93948
2.93983
2.94021
2.94063
2.94108
2.94158
2.94211
2.94268
2.94329
2.94394
2.9446
2.94528
2.94595
2.94658
2.94713
2.94753
2.94772
2.94758
2.94694
2.94561
2.94404
2.94112
2.94228
2.94335
2.94402
2.94436
2.94446
2.94437
2.94415
2.94383
2.94345
2.94303
2.94259
2.94214
2.94171
2.94128
2.94087
2.94048
2.94011
2.93977
2.93945
2.93915
2.93888
2.93863
2.93839
2.93818
2.93799
2.93781
2.93765
2.9375
2.93737
2.93726
2.93715
2.93707
2.93699
2.93692
2.93687
2.93683
2.93679
2.93677
2.93676
2.93676
2.93677
2.93679
2.93683
2.93687
2.93692
2.93699
2.93707
2.93715
2.93726
2.93737
2.9375
2.93765
2.93781
2.93799
2.93818
2.93839
2.93863
2.93888
2.93915
2.93945
2.93977
2.94011
2.94048
2.94087
2.94128
2.94171
2.94214
2.94259
2.94303
2.94345
2.94383
2.94415
2.94437
2.94446
2.94436
2.94402
2.94335
2.94228
2.94112
2.93919
2.94006
2.9409
2.94149
2.94187
2.94209
2.94216
2.94212
2.94199
2.9418
2.94156
2.94128
2.94099
2.94069
2.94039
2.94009
2.93979
2.93951
2.93924
2.93898
2.93874
2.93852
2.9383
2.93811
2.93792
2.93776
2.9376
2.93746
2.93733
2.93722
2.93712
2.93702
2.93694
2.93687
2.93681
2.93677
2.93673
2.9367
2.93668
2.93667
2.93667
2.93668
2.9367
2.93673
2.93677
2.93681
2.93687
2.93694
2.93702
2.93712
2.93722
2.93733
2.93746
2.9376
2.93776
2.93792
2.93811
2.9383
2.93852
2.93874
2.93898
2.93924
2.93951
2.93979
2.94009
2.94039
2.94069
2.94099
2.94128
2.94156
2.9418
2.94199
2.94212
2.94216
2.94209
2.94187
2.94149
2.9409
2.94006
2.93919
2.9378
2.93846
2.93913
2.93963
2.93999
2.94024
2.94038
2.94044
2.94042
2.94035
2.94023
2.94008
2.9399
2.9397
2.93949
2.93928
2.93907
2.93886
2.93866
2.93846
2.93827
2.93809
2.93792
2.93776
2.93761
2.93747
2.93734
2.93722
2.93711
2.93701
2.93692
2.93684
2.93677
2.93671
2.93666
2.93662
2.93658
2.93656
2.93654
2.93653
2.93653
2.93654
2.93656
2.93658
2.93662
2.93666
2.93671
2.93677
2.93684
2.93692
2.93701
2.93711
2.93722
2.93734
2.93747
2.93761
2.93776
2.93792
2.93809
2.93827
2.93846
2.93866
2.93886
2.93907
2.93928
2.93949
2.9397
2.9399
2.94008
2.94023
2.94035
2.94042
2.94044
2.94038
2.94024
2.93999
2.93963
2.93913
2.93846
2.9378
2.93675
2.93726
2.93779
2.93821
2.93853
2.93878
2.93895
2.93905
2.9391
2.9391
2.93905
2.93898
2.93888
2.93876
2.93863
2.93849
2.93834
2.93819
2.93805
2.9379
2.93776
2.93762
2.93748
2.93736
2.93724
2.93713
2.93702
2.93692
2.93683
2.93675
2.93668
2.93661
2.93655
2.9365
2.93646
2.93642
2.93639
2.93637
2.93636
2.93635
2.93635
2.93636
2.93637
2.93639
2.93642
2.93646
2.9365
2.93655
2.93661
2.93668
2.93675
2.93683
2.93692
2.93702
2.93713
2.93724
2.93736
2.93748
2.93762
2.93776
2.9379
2.93805
2.93819
2.93834
2.93849
2.93863
2.93876
2.93888
2.93898
2.93905
2.9391
2.9391
2.93905
2.93895
2.93878
2.93853
2.93821
2.93779
2.93726
2.93675
2.9359
2.93631
2.93674
2.93709
2.93737
2.9376
2.93777
2.9379
2.93797
2.93801
2.93802
2.938
2.93796
2.93789
2.93782
2.93773
2.93763
2.93753
2.93743
2.93733
2.93722
2.93712
2.93702
2.93693
2.93684
2.93675
2.93667
2.93659
2.93652
2.93646
2.9364
2.93634
2.9363
2.93625
2.93622
2.93619
2.93617
2.93615
2.93614
2.93613
2.93613
2.93614
2.93615
2.93617
2.93619
2.93622
2.93625
2.9363
2.93634
2.9364
2.93646
2.93652
2.93659
2.93667
2.93675
2.93684
2.93693
2.93702
2.93712
2.93722
2.93733
2.93743
2.93753
2.93763
2.93773
2.93782
2.93789
2.93796
2.938
2.93802
2.93801
2.93797
2.9379
2.93777
2.9376
2.93737
2.93709
2.93674
2.93631
2.9359
2.93521
2.93554
2.93588
2.93618
2.93642
2.93663
2.93679
2.93692
2.93701
2.93708
2.93711
2.93712
2.93712
2.93709
2.93706
2.93701
2.93695
2.93689
2.93683
2.93676
2.93669
2.93662
2.93655
2.93648
2.93641
2.93635
2.93629
2.93623
2.93618
2.93613
2.93608
2.93604
2.93601
2.93597
2.93595
2.93592
2.9359
2.93589
2.93588
2.93588
2.93588
2.93588
2.93589
2.9359
2.93592
2.93595
2.93597
2.93601
2.93604
2.93608
2.93613
2.93618
2.93623
2.93629
2.93635
2.93641
2.93648
2.93655
2.93662
2.93669
2.93676
2.93683
2.93689
2.93695
2.93701
2.93706
2.93709
2.93712
2.93712
2.93711
2.93708
2.93701
2.93692
2.93679
2.93663
2.93642
2.93618
2.93588
2.93554
2.93521
2.93461
2.93488
2.93517
2.93542
2.93563
2.93581
2.93596
2.93609
2.93618
2.93626
2.93631
2.93634
2.93636
2.93636
2.93635
2.93634
2.93631
2.93628
2.93624
2.9362
2.93615
2.93611
2.93606
2.93602
2.93597
2.93593
2.93589
2.93585
2.93581
2.93577
2.93574
2.93571
2.93569
2.93566
2.93564
2.93562
2.93561
2.9356
2.93559
2.93559
2.93559
2.93559
2.9356
2.93561
2.93562
2.93564
2.93566
2.93569
2.93571
2.93574
2.93577
2.93581
2.93585
2.93589
2.93593
2.93597
2.93602
2.93606
2.93611
2.93615
2.9362
2.93624
2.93628
2.93631
2.93634
2.93635
2.93636
2.93636
2.93634
2.93631
2.93626
2.93618
2.93609
2.93596
2.93581
2.93563
2.93542
2.93517
2.93488
2.93461
2.9341
2.93432
2.93456
2.93477
2.93495
2.93511
2.93525
2.93536
2.93546
2.93554
2.9356
2.93564
2.93567
2.93569
2.9357
2.93571
2.9357
2.93569
2.93567
2.93565
2.93563
2.93561
2.93558
2.93555
2.93553
2.9355
2.93547
2.93545
2.93543
2.9354
2.93538
2.93536
2.93534
2.93533
2.93531
2.9353
2.93529
2.93529
2.93528
2.93528
2.93528
2.93528
2.93529
2.93529
2.9353
2.93531
2.93533
2.93534
2.93536
2.93538
2.9354
2.93543
2.93545
2.93547
2.9355
2.93553
2.93555
2.93558
2.93561
2.93563
2.93565
2.93567
2.93569
2.9357
2.93571
2.9357
2.93569
2.93567
2.93564
2.9356
2.93554
2.93546
2.93536
2.93525
2.93511
2.93495
2.93477
2.93456
2.93432
2.9341
2.93364
2.93383
2.93403
2.9342
2.93436
2.9345
2.93462
2.93473
2.93482
2.9349
2.93496
2.93501
2.93505
2.93508
2.93511
2.93512
2.93513
2.93513
2.93513
2.93513
2.93512
2.93512
2.93511
2.93509
2.93508
2.93507
2.93506
2.93504
2.93503
2.93502
2.93501
2.93499
2.93498
2.93498
2.93497
2.93496
2.93496
2.93495
2.93495
2.93495
2.93495
2.93495
2.93495
2.93496
2.93496
2.93497
2.93498
2.93498
2.93499
2.93501
2.93502
2.93503
2.93504
2.93506
2.93507
2.93508
2.93509
2.93511
2.93512
2.93512
2.93513
2.93513
2.93513
2.93513
2.93512
2.93511
2.93508
2.93505
2.93501
2.93496
2.9349
2.93482
2.93473
2.93462
2.9345
2.93436
2.9342
2.93403
2.93383
2.93364
2.93323
2.93338
2.93355
2.9337
2.93384
2.93396
2.93407
2.93416
2.93425
2.93432
2.93438
2.93444
2.93448
2.93452
2.93455
2.93458
2.93459
2.93461
2.93462
2.93463
2.93463
2.93464
2.93464
2.93464
2.93464
2.93464
2.93463
2.93463
2.93463
2.93462
2.93462
2.93462
2.93461
2.93461
2.93461
2.9346
2.9346
2.9346
2.9346
2.9346
2.9346
2.9346
2.9346
2.9346
2.9346
2.93461
2.93461
2.93461
2.93462
2.93462
2.93462
2.93463
2.93463
2.93463
2.93464
2.93464
2.93464
2.93464
2.93464
2.93463
2.93463
2.93462
2.93461
2.93459
2.93458
2.93455
2.93452
2.93448
2.93444
2.93438
2.93432
2.93425
2.93416
2.93407
2.93396
2.93384
2.9337
2.93355
2.93338
2.93323
2.93284
2.93298
2.93312
2.93325
2.93336
2.93347
2.93357
2.93365
2.93373
2.9338
2.93386
2.93391
2.93396
2.934
2.93403
2.93407
2.93409
2.93411
2.93413
2.93415
2.93416
2.93418
2.93419
2.93419
2.9342
2.93421
2.93421
2.93422
2.93422
2.93423
2.93423
2.93423
2.93423
2.93423
2.93424
2.93424
2.93424
2.93424
2.93424
2.93424
2.93424
2.93424
2.93424
2.93424
2.93424
2.93424
2.93423
2.93423
2.93423
2.93423
2.93423
2.93422
2.93422
2.93421
2.93421
2.9342
2.93419
2.93419
2.93418
2.93416
2.93415
2.93413
2.93411
2.93409
2.93407
2.93403
2.934
2.93396
2.93391
2.93386
2.9338
2.93373
2.93365
2.93357
2.93347
2.93336
2.93325
2.93312
2.93298
2.93284
2.93249
2.9326
2.93272
2.93283
2.93293
2.93302
2.93311
2.93319
2.93326
2.93332
2.93338
2.93343
2.93348
2.93352
2.93355
2.93359
2.93362
2.93364
2.93367
2.93369
2.93371
2.93373
2.93375
2.93376
2.93377
2.93379
2.9338
2.93381
2.93382
2.93383
2.93384
2.93384
2.93385
2.93385
2.93386
2.93386
2.93387
2.93387
2.93387
2.93387
2.93387
2.93387
2.93387
2.93387
2.93386
2.93386
2.93385
2.93385
2.93384
2.93384
2.93383
2.93382
2.93381
2.9338
2.93379
2.93377
2.93376
2.93375
2.93373
2.93371
2.93369
2.93367
2.93364
2.93362
2.93359
2.93355
2.93352
2.93348
2.93343
2.93338
2.93332
2.93326
2.93319
2.93311
2.93302
2.93293
2.93283
2.93272
2.9326
2.93249
2.93215
2.93225
2.93235
2.93245
2.93253
2.93261
2.93269
2.93276
2.93282
2.93288
2.93293
2.93298
2.93302
2.93306
2.9331
2.93314
2.93317
2.9332
2.93322
2.93325
2.93327
2.9333
2.93332
2.93334
2.93336
2.93337
2.93339
2.9334
2.93342
2.93343
2.93344
2.93345
2.93346
2.93347
2.93348
2.93348
2.93349
2.93349
2.93349
2.9335
2.9335
2.93349
2.93349
2.93349
2.93348
2.93348
2.93347
2.93346
2.93345
2.93344
2.93343
2.93342
2.9334
2.93339
2.93337
2.93336
2.93334
2.93332
2.9333
2.93327
2.93325
2.93322
2.9332
2.93317
2.93314
2.9331
2.93306
2.93302
2.93298
2.93293
2.93288
2.93282
2.93276
2.93269
2.93261
2.93253
2.93245
2.93235
2.93225
2.93215
2.93183
2.93191
2.932
2.93208
2.93216
2.93223
2.93229
2.93235
2.93241
2.93246
2.93251
2.93256
2.9326
2.93264
2.93268
2.93271
2.93274
2.93277
2.9328
2.93283
2.93286
2.93288
2.9329
2.93293
2.93295
2.93297
2.93299
2.93301
2.93302
2.93304
2.93305
2.93307
2.93308
2.93309
2.9331
2.9331
2.93311
2.93312
2.93312
2.93312
2.93312
2.93312
2.93312
2.93311
2.9331
2.9331
2.93309
2.93308
2.93307
2.93305
2.93304
2.93302
2.93301
2.93299
2.93297
2.93295
2.93293
2.9329
2.93288
2.93286
2.93283
2.9328
2.93277
2.93274
2.93271
2.93268
2.93264
2.9326
2.93256
2.93251
2.93246
2.93241
2.93235
2.93229
2.93223
2.93216
2.93208
2.932
2.93191
2.93183
2.93152
2.93159
2.93167
2.93174
2.9318
2.93186
2.93192
2.93198
2.93203
2.93207
2.93212
2.93216
2.9322
2.93224
2.93227
2.9323
2.93234
2.93237
2.9324
2.93242
2.93245
2.93248
2.9325
2.93253
2.93255
2.93257
2.93259
2.93261
2.93263
2.93265
2.93267
2.93268
2.9327
2.93271
2.93272
2.93273
2.93273
2.93274
2.93274
2.93274
2.93274
2.93274
2.93274
2.93273
2.93273
2.93272
2.93271
2.9327
2.93268
2.93267
2.93265
2.93263
2.93261
2.93259
2.93257
2.93255
2.93253
2.9325
2.93248
2.93245
2.93242
2.9324
2.93237
2.93234
2.9323
2.93227
2.93224
2.9322
2.93216
2.93212
2.93207
2.93203
2.93198
2.93192
2.93186
2.9318
2.93174
2.93167
2.93159
2.93152
2.93122
2.93128
2.93135
2.93141
2.93146
2.93152
2.93157
2.93162
2.93166
2.9317
2.93174
2.93178
2.93182
2.93185
2.93189
2.93192
2.93195
2.93198
2.93201
2.93204
2.93206
2.93209
2.93212
2.93214
2.93216
2.93219
2.93221
2.93223
2.93225
2.93227
2.93229
2.9323
2.93232
2.93233
2.93234
2.93235
2.93236
2.93236
2.93237
2.93237
2.93237
2.93237
2.93236
2.93236
2.93235
2.93234
2.93233
2.93232
2.9323
2.93229
2.93227
2.93225
2.93223
2.93221
2.93219
2.93216
2.93214
2.93212
2.93209
2.93206
2.93204
2.93201
2.93198
2.93195
2.93192
2.93189
2.93185
2.93182
2.93178
2.93174
2.9317
2.93166
2.93162
2.93157
2.93152
2.93146
2.93141
2.93135
2.93128
2.93122
2.93093
2.93098
2.93104
2.93109
2.93114
2.93118
2.93123
2.93127
2.93131
2.93135
2.93138
2.93142
2.93145
2.93148
2.93152
2.93155
2.93158
2.9316
2.93163
2.93166
2.93169
2.93171
2.93174
2.93176
2.93179
2.93181
2.93183
2.93185
2.93188
2.93189
2.93191
2.93193
2.93194
2.93196
2.93197
2.93198
2.93198
2.93199
2.93199
2.932
2.932
2.93199
2.93199
2.93198
2.93198
2.93197
2.93196
2.93194
2.93193
2.93191
2.93189
2.93188
2.93185
2.93183
2.93181
2.93179
2.93176
2.93174
2.93171
2.93169
2.93166
2.93163
2.9316
2.93158
2.93155
2.93152
2.93148
2.93145
2.93142
2.93138
2.93135
2.93131
2.93127
2.93123
2.93118
2.93114
2.93109
2.93104
2.93098
2.93093
2.93065
2.93069
2.93074
2.93078
2.93082
2.93086
2.9309
2.93094
2.93097
2.93101
2.93104
2.93107
2.9311
2.93113
2.93116
2.93119
2.93122
2.93124
2.93127
2.9313
2.93132
2.93135
2.93137
2.9314
2.93142
2.93144
2.93147
2.93149
2.93151
2.93153
2.93154
2.93156
2.93157
2.93159
2.9316
2.93161
2.93162
2.93162
2.93163
2.93163
2.93163
2.93163
2.93162
2.93162
2.93161
2.9316
2.93159
2.93157
2.93156
2.93154
2.93153
2.93151
2.93149
2.93147
2.93144
2.93142
2.9314
2.93137
2.93135
2.93132
2.9313
2.93127
2.93124
2.93122
2.93119
2.93116
2.93113
2.9311
2.93107
2.93104
2.93101
2.93097
2.93094
2.9309
2.93086
2.93082
2.93078
2.93074
2.93069
2.93065
2.93036
2.9304
2.93044
2.93048
2.93052
2.93055
2.93058
2.93062
2.93065
2.93068
2.93071
2.93073
2.93076
2.93079
2.93082
2.93084
2.93087
2.93089
2.93092
2.93094
2.93097
2.93099
2.93102
2.93104
2.93106
2.93108
2.93111
2.93113
2.93115
2.93116
2.93118
2.9312
2.93121
2.93123
2.93124
2.93125
2.93125
2.93126
2.93126
2.93127
2.93127
2.93126
2.93126
2.93125
2.93125
2.93124
2.93123
2.93121
2.9312
2.93118
2.93116
2.93115
2.93113
2.93111
2.93108
2.93106
2.93104
2.93102
2.93099
2.93097
2.93094
2.93092
2.93089
2.93087
2.93084
2.93082
2.93079
2.93076
2.93073
2.93071
2.93068
2.93065
2.93062
2.93058
2.93055
2.93052
2.93048
2.93044
2.9304
2.93036
2.93008
2.93012
2.93015
2.93018
2.93022
2.93025
2.93027
2.9303
2.93033
2.93036
2.93038
2.93041
2.93043
2.93046
2.93048
2.93051
2.93053
2.93055
2.93058
2.9306
2.93062
2.93064
2.93067
2.93069
2.93071
2.93073
2.93075
2.93077
2.93079
2.93081
2.93083
2.93084
2.93086
2.93087
2.93088
2.93089
2.9309
2.9309
2.93091
2.93091
2.93091
2.93091
2.9309
2.9309
2.93089
2.93088
2.93087
2.93086
2.93084
2.93083
2.93081
2.93079
2.93077
2.93075
2.93073
2.93071
2.93069
2.93067
2.93064
2.93062
2.9306
2.93058
2.93055
2.93053
2.93051
2.93048
2.93046
2.93043
2.93041
2.93038
2.93036
2.93033
2.9303
2.93027
2.93025
2.93022
2.93018
2.93015
2.93012
2.93008
2.92981
2.92983
2.92986
2.92989
2.92992
2.92995
2.92997
2.93
2.93002
2.93004
2.93007
2.93009
2.93011
2.93013
2.93016
2.93018
2.9302
2.93022
2.93024
2.93026
2.93028
2.93031
2.93033
2.93035
2.93037
2.93039
2.93041
2.93043
2.93045
2.93046
2.93048
2.93049
2.93051
2.93052
2.93053
2.93054
2.93055
2.93055
2.93055
2.93056
2.93056
2.93055
2.93055
2.93055
2.93054
2.93053
2.93052
2.93051
2.93049
2.93048
2.93046
2.93045
2.93043
2.93041
2.93039
2.93037
2.93035
2.93033
2.93031
2.93028
2.93026
2.93024
2.93022
2.9302
2.93018
2.93016
2.93013
2.93011
2.93009
2.93007
2.93004
2.93002
2.93
2.92997
2.92995
2.92992
2.92989
2.92986
2.92983
2.92981
2.92953
2.92956
2.92958
2.92961
2.92963
2.92965
2.92967
2.92969
2.92972
2.92974
2.92976
2.92978
2.9298
2.92982
2.92984
2.92986
2.92988
2.9299
2.92992
2.92994
2.92996
2.92997
2.92999
2.93001
2.93003
2.93005
2.93007
2.93009
2.9301
2.93012
2.93014
2.93015
2.93016
2.93017
2.93018
2.93019
2.9302
2.9302
2.93021
2.93021
2.93021
2.93021
2.9302
2.9302
2.93019
2.93018
2.93017
2.93016
2.93015
2.93014
2.93012
2.9301
2.93009
2.93007
2.93005
2.93003
2.93001
2.92999
2.92997
2.92996
2.92994
2.92992
2.9299
2.92988
2.92986
2.92984
2.92982
2.9298
2.92978
2.92976
2.92974
2.92972
2.92969
2.92967
2.92965
2.92963
2.92961
2.92958
2.92956
2.92953
2.92926
2.92928
2.9293
2.92932
2.92934
2.92936
2.92938
2.9294
2.92942
2.92943
2.92945
2.92947
2.92949
2.92951
2.92952
2.92954
2.92956
2.92958
2.9296
2.92961
2.92963
2.92965
2.92967
2.92969
2.9297
2.92972
2.92974
2.92975
2.92977
2.92978
2.9298
2.92981
2.92982
2.92983
2.92984
2.92985
2.92986
2.92986
2.92987
2.92987
2.92987
2.92987
2.92986
2.92986
2.92985
2.92984
2.92983
2.92982
2.92981
2.9298
2.92978
2.92977
2.92975
2.92974
2.92972
2.9297
2.92969
2.92967
2.92965
2.92963
2.92961
2.9296
2.92958
2.92956
2.92954
2.92952
2.92951
2.92949
2.92947
2.92945
2.92943
2.92942
2.9294
2.92938
2.92936
2.92934
2.92932
2.9293
2.92928
2.92926
2.92898
2.929
2.92902
2.92904
2.92905
2.92907
2.92909
2.9291
2.92912
2.92914
2.92915
2.92917
2.92918
2.9292
2.92922
2.92923
2.92925
2.92926
2.92928
2.9293
2.92931
2.92933
2.92935
2.92936
2.92938
2.9294
2.92941
2.92943
2.92944
2.92945
2.92947
2.92948
2.92949
2.9295
2.92951
2.92952
2.92952
2.92953
2.92953
2.92953
2.92953
2.92953
2.92953
2.92952
2.92952
2.92951
2.9295
2.92949
2.92948
2.92947
2.92945
2.92944
2.92943
2.92941
2.9294
2.92938
2.92936
2.92935
2.92933
2.92931
2.9293
2.92928
2.92926
2.92925
2.92923
2.92922
2.9292
2.92918
2.92917
2.92915
2.92914
2.92912
2.9291
2.92909
2.92907
2.92905
2.92904
2.92902
2.929
2.92898
2.92871
2.92872
2.92874
2.92876
2.92877
2.92878
2.9288
2.92881
2.92883
2.92884
2.92886
2.92887
2.92888
2.9289
2.92891
2.92893
2.92894
2.92896
2.92897
2.92898
2.929
2.92902
2.92903
2.92905
2.92906
2.92908
2.92909
2.9291
2.92912
2.92913
2.92914
2.92915
2.92916
2.92917
2.92918
2.92919
2.92919
2.9292
2.9292
2.9292
2.9292
2.9292
2.9292
2.92919
2.92919
2.92918
2.92917
2.92916
2.92915
2.92914
2.92913
2.92912
2.9291
2.92909
2.92908
2.92906
2.92905
2.92903
2.92902
2.929
2.92898
2.92897
2.92896
2.92894
2.92893
2.92891
2.9289
2.92888
2.92887
2.92885
2.92884
2.92883
2.92881
2.9288
2.92878
2.92877
2.92876
2.92874
2.92872
2.92871
2.92844
2.92845
2.92846
2.92847
2.92849
2.9285
2.92851
2.92852
2.92854
2.92855
2.92856
2.92857
2.92859
2.9286
2.92861
2.92862
2.92864
2.92865
2.92866
2.92868
2.92869
2.9287
2.92872
2.92873
2.92875
2.92876
2.92877
2.92878
2.9288
2.92881
2.92882
2.92883
2.92884
2.92885
2.92885
2.92886
2.92887
2.92887
2.92887
2.92887
2.92887
2.92887
2.92887
2.92887
2.92886
2.92885
2.92885
2.92884
2.92883
2.92882
2.92881
2.9288
2.92878
2.92877
2.92876
2.92875
2.92873
2.92872
2.9287
2.92869
2.92868
2.92866
2.92865
2.92864
2.92862
2.92861
2.9286
2.92859
2.92857
2.92856
2.92855
2.92854
2.92852
2.92851
2.9285
2.92849
2.92847
2.92846
2.92845
2.92844
2.92816
2.92817
2.92818
2.92819
2.92821
2.92822
2.92823
2.92824
2.92825
2.92826
2.92827
2.92828
2.92829
2.9283
2.92831
2.92833
2.92834
2.92835
2.92836
2.92837
2.92839
2.9284
2.92841
2.92842
2.92843
2.92845
2.92846
2.92847
2.92848
2.92849
2.9285
2.92851
2.92852
2.92853
2.92853
2.92854
2.92854
2.92855
2.92855
2.92855
2.92855
2.92855
2.92855
2.92854
2.92854
2.92853
2.92853
2.92852
2.92851
2.9285
2.92849
2.92848
2.92847
2.92846
2.92845
2.92843
2.92842
2.92841
2.9284
2.92839
2.92837
2.92836
2.92835
2.92834
2.92833
2.92831
2.9283
2.92829
2.92828
2.92827
2.92826
2.92825
2.92824
2.92823
2.92822
2.92821
2.92819
2.92818
2.92817
2.92816
2.92789
2.9279
2.92791
2.92792
2.92792
2.92793
2.92794
2.92795
2.92796
2.92797
2.92798
2.92799
2.928
2.92801
2.92802
2.92803
2.92804
2.92805
2.92806
2.92807
2.92808
2.92809
2.92811
2.92812
2.92813
2.92814
2.92815
2.92816
2.92817
2.92818
2.92819
2.9282
2.9282
2.92821
2.92822
2.92822
2.92823
2.92823
2.92823
2.92823
2.92823
2.92823
2.92823
2.92823
2.92822
2.92822
2.92821
2.9282
2.9282
2.92819
2.92818
2.92817
2.92816
2.92815
2.92814
2.92813
2.92812
2.92811
2.92809
2.92808
2.92807
2.92806
2.92805
2.92804
2.92803
2.92802
2.92801
2.928
2.92799
2.92798
2.92797
2.92796
2.92795
2.92794
2.92793
2.92792
2.92792
2.92791
2.9279
2.92789
2.92761
2.92762
2.92763
2.92764
2.92764
2.92765
2.92766
2.92767
2.92768
2.92768
2.92769
2.9277
2.92771
2.92772
2.92773
2.92774
2.92774
2.92775
2.92776
2.92777
2.92778
2.92779
2.9278
2.92781
2.92782
2.92783
2.92784
2.92785
2.92786
2.92787
2.92788
2.92788
2.92789
2.9279
2.9279
2.92791
2.92791
2.92791
2.92792
2.92792
2.92792
2.92792
2.92791
2.92791
2.92791
2.9279
2.9279
2.92789
2.92788
2.92788
2.92787
2.92786
2.92785
2.92784
2.92783
2.92782
2.92781
2.9278
2.92779
2.92778
2.92777
2.92776
2.92775
2.92774
2.92774
2.92773
2.92772
2.92771
2.9277
2.92769
2.92768
2.92768
2.92767
2.92766
2.92765
2.92764
2.92764
2.92763
2.92762
2.92761
2.92734
2.92734
2.92735
2.92736
2.92736
2.92737
2.92738
2.92738
2.92739
2.9274
2.9274
2.92741
2.92742
2.92743
2.92743
2.92744
2.92745
2.92746
2.92747
2.92748
2.92749
2.92749
2.9275
2.92751
2.92752
2.92753
2.92754
2.92755
2.92755
2.92756
2.92757
2.92758
2.92758
2.92759
2.92759
2.9276
2.9276
2.9276
2.92761
2.92761
2.92761
2.92761
2.9276
2.9276
2.9276
2.92759
2.92759
2.92758
2.92758
2.92757
2.92756
2.92755
2.92755
2.92754
2.92753
2.92752
2.92751
2.9275
2.92749
2.92749
2.92748
2.92747
2.92746
2.92745
2.92744
2.92743
2.92743
2.92742
2.92741
2.9274
2.9274
2.92739
2.92738
2.92738
2.92737
2.92736
2.92736
2.92735
2.92734
2.92734
2.92706
2.92707
2.92707
2.92708
2.92708
2.92709
2.92709
2.9271
2.92711
2.92711
2.92712
2.92713
2.92713
2.92714
2.92715
2.92715
2.92716
2.92717
2.92717
2.92718
2.92719
2.9272
2.92721
2.92721
2.92722
2.92723
2.92724
2.92724
2.92725
2.92726
2.92727
2.92727
2.92728
2.92728
2.92729
2.92729
2.92729
2.9273
2.9273
2.9273
2.9273
2.9273
2.9273
2.92729
2.92729
2.92729
2.92728
2.92728
2.92727
2.92727
2.92726
2.92725
2.92724
2.92724
2.92723
2.92722
2.92721
2.92721
2.9272
2.92719
2.92718
2.92717
2.92717
2.92716
2.92715
2.92715
2.92714
2.92713
2.92713
2.92712
2.92711
2.92711
2.9271
2.92709
2.92709
2.92708
2.92708
2.92707
2.92707
2.92706
2.92678
2.92679
2.92679
2.9268
2.9268
2.92681
2.92681
2.92682
2.92682
2.92683
2.92683
2.92684
2.92684
2.92685
2.92686
2.92686
2.92687
2.92688
2.92688
2.92689
2.9269
2.9269
2.92691
2.92692
2.92692
2.92693
2.92694
2.92694
2.92695
2.92696
2.92696
2.92697
2.92697
2.92698
2.92698
2.92699
2.92699
2.92699
2.92699
2.92699
2.92699
2.92699
2.92699
2.92699
2.92699
2.92698
2.92698
2.92697
2.92697
2.92696
2.92696
2.92695
2.92694
2.92694
2.92693
2.92692
2.92692
2.92691
2.9269
2.9269
2.92689
2.92688
2.92688
2.92687
2.92686
2.92686
2.92685
2.92684
2.92684
2.92683
2.92683
2.92682
2.92682
2.92681
2.92681
2.9268
2.9268
2.92679
2.92679
2.92678
2.92651
2.92651
2.92651
2.92652
2.92652
2.92653
2.92653
2.92653
2.92654
2.92654
2.92655
2.92655
2.92656
2.92656
2.92657
2.92657
2.92658
2.92659
2.92659
2.9266
2.9266
2.92661
2.92662
2.92662
2.92663
2.92663
2.92664
2.92665
2.92665
2.92666
2.92666
2.92667
2.92667
2.92668
2.92668
2.92668
2.92668
2.92669
2.92669
2.92669
2.92669
2.92669
2.92669
2.92668
2.92668
2.92668
2.92668
2.92667
2.92667
2.92666
2.92666
2.92665
2.92665
2.92664
2.92663
2.92663
2.92662
2.92662
2.92661
2.9266
2.9266
2.92659
2.92659
2.92658
2.92657
2.92657
2.92656
2.92656
2.92655
2.92655
2.92654
2.92654
2.92653
2.92653
2.92653
2.92652
2.92652
2.92651
2.92651
2.92651
2.92623
2.92623
2.92624
2.92624
2.92624
2.92625
2.92625
2.92625
2.92626
2.92626
2.92626
2.92627
2.92627
2.92628
2.92628
2.92629
2.92629
2.9263
2.9263
2.92631
2.92631
2.92632
2.92632
2.92633
2.92633
2.92634
2.92635
2.92635
2.92636
2.92636
2.92636
2.92637
2.92637
2.92638
2.92638
2.92638
2.92638
2.92639
2.92639
2.92639
2.92639
2.92639
2.92639
2.92638
2.92638
2.92638
2.92638
2.92637
2.92637
2.92636
2.92636
2.92636
2.92635
2.92635
2.92634
2.92633
2.92633
2.92632
2.92632
2.92631
2.92631
2.9263
2.9263
2.92629
2.92629
2.92628
2.92628
2.92627
2.92627
2.92626
2.92626
2.92626
2.92625
2.92625
2.92625
2.92624
2.92624
2.92624
2.92623
2.92623
2.92595
2.92595
2.92596
2.92596
2.92596
2.92596
2.92597
2.92597
2.92597
2.92598
2.92598
2.92598
2.92599
2.92599
2.926
2.926
2.926
2.92601
2.92601
2.92602
2.92602
2.92603
2.92603
2.92604
2.92604
2.92605
2.92605
2.92606
2.92606
2.92606
2.92607
2.92607
2.92608
2.92608
2.92608
2.92608
2.92609
2.92609
2.92609
2.92609
2.92609
2.92609
2.92609
2.92609
2.92608
2.92608
2.92608
2.92608
2.92607
2.92607
2.92606
2.92606
2.92606
2.92605
2.92605
2.92604
2.92604
2.92603
2.92603
2.92602
2.92602
2.92601
2.92601
2.926
2.926
2.926
2.92599
2.92599
2.92598
2.92598
2.92598
2.92597
2.92597
2.92597
2.92596
2.92596
2.92596
2.92596
2.92595
2.92595
2.92567
2.92567
2.92568
2.92568
2.92568
2.92568
2.92568
2.92569
2.92569
2.92569
2.9257
2.9257
2.9257
2.92571
2.92571
2.92571
2.92572
2.92572
2.92572
2.92573
2.92573
2.92574
2.92574
2.92575
2.92575
2.92575
2.92576
2.92576
2.92577
2.92577
2.92577
2.92578
2.92578
2.92578
2.92578
2.92579
2.92579
2.92579
2.92579
2.92579
2.92579
2.92579
2.92579
2.92579
2.92579
2.92578
2.92578
2.92578
2.92578
2.92577
2.92577
2.92577
2.92576
2.92576
2.92575
2.92575
2.92575
2.92574
2.92574
2.92573
2.92573
2.92572
2.92572
2.92572
2.92571
2.92571
2.92571
2.9257
2.9257
2.9257
2.92569
2.92569
2.92569
2.92568
2.92568
2.92568
2.92568
2.92568
2.92567
2.92567
2.92539
2.92539
2.92539
2.9254
2.9254
2.9254
2.9254
2.9254
2.92541
2.92541
2.92541
2.92541
2.92542
2.92542
2.92542
2.92543
2.92543
2.92543
2.92544
2.92544
2.92544
2.92545
2.92545
2.92546
2.92546
2.92546
2.92547
2.92547
2.92547
2.92548
2.92548
2.92548
2.92549
2.92549
2.92549
2.92549
2.92549
2.92549
2.92549
2.9255
2.9255
2.92549
2.92549
2.92549
2.92549
2.92549
2.92549
2.92549
2.92548
2.92548
2.92548
2.92547
2.92547
2.92547
2.92546
2.92546
2.92546
2.92545
2.92545
2.92544
2.92544
2.92544
2.92543
2.92543
2.92543
2.92542
2.92542
2.92542
2.92541
2.92541
2.92541
2.92541
2.9254
2.9254
2.9254
2.9254
2.9254
2.92539
2.92539
2.92539
2.92511
2.92511
2.92511
2.92511
2.92512
2.92512
2.92512
2.92512
2.92512
2.92513
2.92513
2.92513
2.92513
2.92514
2.92514
2.92514
2.92514
2.92515
2.92515
2.92515
2.92516
2.92516
2.92516
2.92517
2.92517
2.92517
2.92518
2.92518
2.92518
2.92518
2.92519
2.92519
2.92519
2.92519
2.9252
2.9252
2.9252
2.9252
2.9252
2.9252
2.9252
2.9252
2.9252
2.9252
2.9252
2.9252
2.92519
2.92519
2.92519
2.92519
2.92518
2.92518
2.92518
2.92518
2.92517
2.92517
2.92517
2.92516
2.92516
2.92516
2.92515
2.92515
2.92515
2.92514
2.92514
2.92514
2.92514
2.92513
2.92513
2.92513
2.92513
2.92512
2.92512
2.92512
2.92512
2.92512
2.92511
2.92511
2.92511
2.92511
2.92483
2.92483
2.92483
2.92483
2.92483
2.92484
2.92484
2.92484
2.92484
2.92484
2.92484
2.92485
2.92485
2.92485
2.92485
2.92485
2.92486
2.92486
2.92486
2.92487
2.92487
2.92487
2.92487
2.92488
2.92488
2.92488
2.92489
2.92489
2.92489
2.92489
2.9249
2.9249
2.9249
2.9249
2.9249
2.9249
2.92491
2.92491
2.92491
2.92491
2.92491
2.92491
2.92491
2.92491
2.9249
2.9249
2.9249
2.9249
2.9249
2.9249
2.92489
2.92489
2.92489
2.92489
2.92488
2.92488
2.92488
2.92487
2.92487
2.92487
2.92487
2.92486
2.92486
2.92486
2.92485
2.92485
2.92485
2.92485
2.92485
2.92484
2.92484
2.92484
2.92484
2.92484
2.92484
2.92483
2.92483
2.92483
2.92483
2.92483
2.92455
2.92455
2.92455
2.92455
2.92455
2.92455
2.92455
2.92456
2.92456
2.92456
2.92456
2.92456
2.92456
2.92457
2.92457
2.92457
2.92457
2.92457
2.92458
2.92458
2.92458
2.92458
2.92459
2.92459
2.92459
2.92459
2.9246
2.9246
2.9246
2.9246
2.9246
2.92461
2.92461
2.92461
2.92461
2.92461
2.92461
2.92461
2.92461
2.92462
2.92462
2.92461
2.92461
2.92461
2.92461
2.92461
2.92461
2.92461
2.92461
2.9246
2.9246
2.9246
2.9246
2.9246
2.92459
2.92459
2.92459
2.92459
2.92458
2.92458
2.92458
2.92458
2.92457
2.92457
2.92457
2.92457
2.92457
2.92456
2.92456
2.92456
2.92456
2.92456
2.92456
2.92455
2.92455
2.92455
2.92455
2.92455
2.92455
2.92455
2.92427
2.92427
2.92427
2.92427
2.92427
2.92427
2.92427
2.92427
2.92427
2.92427
2.92428
2.92428
2.92428
2.92428
2.92428
2.92428
2.92429
2.92429
2.92429
2.92429
2.92429
2.9243
2.9243
2.9243
2.9243
2.9243
2.92431
2.92431
2.92431
2.92431
2.92431
2.92432
2.92432
2.92432
2.92432
2.92432
2.92432
2.92432
2.92432
2.92432
2.92432
2.92432
2.92432
2.92432
2.92432
2.92432
2.92432
2.92432
2.92432
2.92431
2.92431
2.92431
2.92431
2.92431
2.9243
2.9243
2.9243
2.9243
2.9243
2.92429
2.92429
2.92429
2.92429
2.92429
2.92428
2.92428
2.92428
2.92428
2.92428
2.92428
2.92427
2.92427
2.92427
2.92427
2.92427
2.92427
2.92427
2.92427
2.92427
2.92427
2.92398
2.92398
2.92399
2.92399
2.92399
2.92399
2.92399
2.92399
2.92399
2.92399
2.92399
2.92399
2.92399
2.924
2.924
2.924
2.924
2.924
2.924
2.92401
2.92401
2.92401
2.92401
2.92401
2.92401
2.92402
2.92402
2.92402
2.92402
2.92402
2.92403
2.92403
2.92403
2.92403
2.92403
2.92403
2.92403
2.92403