/*--------------------------------*- C++ -*----------------------------------*\
  =========                 |
  \\      /  F ield         | OpenFOAM: The Open Source CFD Toolbox
   \\    /   O peration     | Website:  https://openfoam.org
    \\  /    A nd           | Version:  11
     \\/     M anipulation  |
\*---------------------------------------------------------------------------*/
FoamFile
{
    format      ascii;
    class       volScalarField;
    location    "5";
    object      C;
}
// * * * * * * * * * * * * * * * * * * * * * * * * * * * * * * * * * * * * * //

dimensions      [0 0 0 1 0 0 0];

internalField   nonuniform List<scalar> 
427520
(
4.64811e-68
4.56138e-68
4.41513e-68
4.22756e-68
4.01182e-68
3.77803e-68
3.53413e-68
3.28642e-68
3.03991e-68
2.7985e-68
2.56517e-68
2.34214e-68
2.13094e-68
1.93259e-68
1.74766e-68
1.57633e-68
1.41853e-68
1.27395e-68
1.1421e-68
1.02238e-68
9.14117e-69
8.1657e-69
7.28987e-69
6.50609e-69
5.80692e-69
5.18516e-69
4.63398e-69
4.14694e-69
3.71807e-69
3.34187e-69
3.01331e-69
2.72788e-69
2.48151e-69
2.27063e-69
2.09209e-69
1.94319e-69
1.82164e-69
1.72555e-69
1.65339e-69
1.60402e-69
1.57666e-69
1.57085e-69
1.58649e-69
1.62382e-69
1.6834e-69
1.76613e-69
1.87328e-69
2.00644e-69
2.16757e-69
2.35898e-69
2.58337e-69
2.8438e-69
3.14372e-69
3.48694e-69
3.87765e-69
4.32037e-69
4.81995e-69
5.38149e-69
6.01029e-69
6.71177e-69
7.49132e-69
8.3542e-69
9.30529e-69
1.03489e-68
1.14884e-68
1.27262e-68
1.40627e-68
1.54966e-68
1.70237e-68
1.86367e-68
2.03245e-68
2.2071e-68
2.38546e-68
2.56472e-68
2.74125e-68
2.91048e-68
3.06666e-68
3.20248e-68
3.30838e-68
3.37121e-68
1.43437e-67
1.41417e-67
1.37797e-67
1.3294e-67
1.27154e-67
1.20704e-67
1.13813e-67
1.0667e-67
9.9432e-68
9.22276e-68
8.51609e-68
7.83132e-68
7.17467e-68
6.55067e-68
5.96239e-68
5.4117e-68
4.89946e-68
4.42573e-68
3.98988e-68
3.59082e-68
3.22705e-68
2.89681e-68
2.59818e-68
2.32911e-68
2.08755e-68
1.87142e-68
1.67873e-68
1.50755e-68
1.35605e-68
1.22252e-68
1.1054e-68
1.00323e-68
9.14719e-69
8.38693e-69
7.74123e-69
7.20116e-69
6.75908e-69
6.40862e-69
6.14467e-69
5.96332e-69
5.86185e-69
5.83869e-69
5.8934e-69
6.02668e-69
6.24035e-69
6.53734e-69
6.92169e-69
7.39859e-69
7.97433e-69
8.65635e-69
9.4532e-69
1.03745e-68
1.1431e-68
1.26345e-68
1.39975e-68
1.55337e-68
1.7257e-68
1.9182e-68
2.13234e-68
2.36956e-68
2.63123e-68
2.91861e-68
3.23275e-68
3.57444e-68
3.94411e-68
4.34172e-68
4.76663e-68
5.21749e-68
5.69206e-68
6.18707e-68
6.69801e-68
7.219e-68
7.74251e-68
8.25922e-68
8.75777e-68
9.22449e-68
9.64319e-68
9.99475e-68
1.02568e-67
1.04031e-67
2.48663e-67
2.4565e-67
2.40136e-67
2.32597e-67
2.23469e-67
2.13143e-67
2.01965e-67
1.9024e-67
1.78228e-67
1.6615e-67
1.5419e-67
1.42496e-67
1.31186e-67
1.20353e-67
1.1006e-67
1.00355e-67
9.12642e-68
8.28e-68
7.49626e-68
6.77424e-68
6.11217e-68
5.50774e-68
4.95819e-68
4.4605e-68
4.01146e-68
3.60784e-68
3.24637e-68
2.92389e-68
2.63735e-68
2.38387e-68
2.16074e-68
1.96547e-68
1.79578e-68
1.64962e-68
1.52516e-68
1.42081e-68
1.3352e-68
1.26717e-68
1.2158e-68
1.18037e-68
1.16038e-68
1.15553e-68
1.16574e-68
1.19112e-68
1.23197e-68
1.2888e-68
1.36234e-68
1.45347e-68
1.5633e-68
1.69312e-68
1.84439e-68
2.01878e-68
2.21809e-68
2.44431e-68
2.69952e-68
2.98593e-68
3.30581e-68
3.66144e-68
4.05506e-68
4.48882e-68
4.96464e-68
5.48419e-68
6.04867e-68
6.65878e-68
7.31446e-68
8.01481e-68
8.75783e-68
9.54022e-68
1.03572e-67
1.12022e-67
1.20666e-67
1.29397e-67
1.38081e-67
1.4656e-67
1.54643e-67
1.62113e-67
1.68716e-67
1.74171e-67
1.78161e-67
1.80341e-67
3.65882e-67
3.6189e-67
3.54503e-67
3.44298e-67
3.31821e-67
3.17577e-67
3.02024e-67
2.85575e-67
2.68592e-67
2.51387e-67
2.34228e-67
2.17336e-67
2.00891e-67
1.85037e-67
1.69883e-67
1.55508e-67
1.41965e-67
1.29286e-67
1.17482e-67
1.06551e-67
9.64769e-68
8.72353e-68
7.87935e-68
7.11139e-68
6.41551e-68
5.78741e-68
5.22269e-68
4.71698e-68
4.26602e-68
3.86574e-68
3.51227e-68
3.202e-68
2.93163e-68
2.69814e-68
2.49884e-68
2.33136e-68
2.19364e-68
2.08397e-68
2.00094e-68
1.94346e-68
1.91076e-68
1.90238e-68
1.91816e-68
1.95825e-68
2.02309e-68
2.11343e-68
2.23028e-68
2.37496e-68
2.54907e-68
2.75445e-68
2.99324e-68
3.26778e-68
3.58064e-68
3.9346e-68
4.33254e-68
4.77749e-68
5.27247e-68
5.82051e-68
6.42447e-68
7.08699e-68
7.81034e-68
8.59625e-68
9.44579e-68
1.03591e-67
1.13353e-67
1.2372e-67
1.34654e-67
1.46098e-67
1.57971e-67
1.70172e-67
1.82568e-67
1.94999e-67
2.07272e-67
2.19162e-67
2.30405e-67
2.40704e-67
2.49727e-67
2.57107e-67
2.62451e-67
2.65339e-67
4.98811e-67
4.93775e-67
4.84397e-67
4.7136e-67
4.55322e-67
4.369e-67
4.16668e-67
3.95145e-67
3.72797e-67
3.50033e-67
3.27205e-67
3.04613e-67
2.82506e-67
2.61085e-67
2.40508e-67
2.20893e-67
2.02326e-67
1.84862e-67
1.68531e-67
1.5334e-67
1.3928e-67
1.26328e-67
1.14449e-67
1.036e-67
9.37322e-68
8.47926e-68
7.67268e-68
6.94795e-68
6.29961e-68
5.72236e-68
5.21114e-68
4.76118e-68
4.36808e-68
4.02779e-68
3.73667e-68
3.4915e-68
3.28948e-68
3.12825e-68
3.00588e-68
2.92084e-68
2.87207e-68
2.85891e-68
2.88111e-68
2.93883e-68
3.03267e-68
3.16358e-68
3.33293e-68
3.54246e-68
3.79428e-68
4.09084e-68
4.43491e-68
4.82959e-68
5.27819e-68
5.78426e-68
6.3515e-68
6.98367e-68
7.68453e-68
8.4577e-68
9.30657e-68
1.02341e-67
1.12427e-67
1.23339e-67
1.35084e-67
1.47654e-67
1.61028e-67
1.75166e-67
1.90005e-67
2.05458e-67
2.21412e-67
2.3772e-67
2.54203e-67
2.70645e-67
2.86788e-67
3.02338e-67
3.16958e-67
3.30271e-67
3.41864e-67
3.51289e-67
3.5807e-67
3.61712e-67
6.51436e-67
6.45238e-67
6.33651e-67
6.17478e-67
5.97501e-67
5.7446e-67
5.4905e-67
5.21907e-67
4.93607e-67
4.6466e-67
4.35514e-67
4.06552e-67
3.78096e-67
3.50412e-67
3.23712e-67
2.98162e-67
2.73883e-67
2.50958e-67
2.29439e-67
2.09349e-67
1.90687e-67
1.73434e-67
1.57554e-67
1.43003e-67
1.29723e-67
1.17654e-67
1.06731e-67
9.68872e-68
8.80557e-68
8.0171e-68
7.31701e-68
6.69929e-68
6.15837e-68
5.68908e-68
5.28677e-68
4.94729e-68
4.66701e-68
4.44286e-68
4.2723e-68
4.15336e-68
4.0846e-68
4.06512e-68
4.09459e-68
4.17317e-68
4.30157e-68
4.48101e-68
4.71319e-68
5.00029e-68
5.34497e-68
5.7503e-68
6.21974e-68
6.7571e-68
7.36651e-68
8.05227e-68
8.81887e-68
9.6708e-68
1.06125e-67
1.16481e-67
1.27814e-67
1.40156e-67
1.5353e-67
1.67949e-67
1.83412e-67
1.99901e-67
2.17377e-67
2.35781e-67
2.55023e-67
2.74983e-67
2.95507e-67
3.16404e-67
3.37438e-67
3.58334e-67
3.78768e-67
3.98369e-67
4.16722e-67
4.33367e-67
4.47801e-67
4.59487e-67
4.67862e-67
4.72342e-67
8.28214e-67
8.20691e-67
8.06589e-67
7.86855e-67
7.62409e-67
7.34135e-67
7.02862e-67
6.69356e-67
6.34316e-67
5.98365e-67
5.62054e-67
5.25859e-67
4.90185e-67
4.55369e-67
4.21685e-67
3.89349e-67
3.58524e-67
3.29328e-67
3.01836e-67
2.7609e-67
2.52101e-67
2.29856e-67
2.09322e-67
1.9045e-67
1.73178e-67
1.57437e-67
1.43152e-67
1.30245e-67
1.18636e-67
1.08246e-67
9.89996e-68
9.08231e-68
8.3648e-68
7.74107e-68
7.20535e-68
6.75245e-68
6.37786e-68
6.07769e-68
5.84876e-68
5.68854e-68
5.5952e-68
5.56758e-68
5.6052e-68
5.70822e-68
5.87749e-68
6.11444e-68
6.42117e-68
6.80032e-68
7.2551e-68
7.78925e-68
8.40694e-68
9.11276e-68
9.91161e-68
1.08086e-67
1.18091e-67
1.29182e-67
1.4141e-67
1.54823e-67
1.6946e-67
1.85355e-67
2.02529e-67
2.2099e-67
2.40727e-67
2.61711e-67
2.83883e-67
3.07159e-67
3.31419e-67
3.56506e-67
3.82222e-67
4.08323e-67
4.34514e-67
4.60453e-67
4.8574e-67
5.09925e-67
5.32502e-67
5.52918e-67
5.70572e-67
5.84826e-67
5.95013e-67
6.00449e-67
1.03424e-66
1.02519e-66
1.00818e-66
9.84336e-67
9.54742e-67
9.20445e-67
8.82429e-67
8.41612e-67
7.98829e-67
7.54834e-67
7.10294e-67
6.6579e-67
6.21819e-67
5.78799e-67
5.37074e-67
4.96917e-67
4.5854e-67
4.22098e-67
3.87695e-67
3.55394e-67
3.25221e-67
2.97171e-67
2.71213e-67
2.47296e-67
2.25355e-67
2.0531e-67
1.87077e-67
1.70565e-67
1.55681e-67
1.42332e-67
1.30427e-67
1.1988e-67
1.10606e-67
1.02531e-67
9.55827e-68
8.96991e-68
8.48245e-68
8.09113e-68
7.792e-68
7.58195e-68
7.45868e-68
7.42072e-68
7.46742e-68
7.59894e-68
7.81622e-68
8.12099e-68
8.51568e-68
9.00347e-68
9.58816e-68
1.02742e-67
1.10665e-67
1.19705e-67
1.29919e-67
1.41367e-67
1.5411e-67
1.68208e-67
1.83718e-67
2.0069e-67
2.1917e-67
2.3919e-67
2.6077e-67
2.83909e-67
3.08587e-67
3.34758e-67
3.62342e-67
3.91227e-67
4.21259e-67
4.52238e-67
4.83916e-67
5.15991e-67
5.48101e-67
5.79826e-67
6.10685e-67
6.40132e-67
6.67564e-67
6.92317e-67
7.13678e-67
7.30892e-67
7.43172e-67
7.49713e-67
1.27544e-66
1.26459e-66
1.24419e-66
1.21556e-66
1.17998e-66
1.13868e-66
1.09283e-66
1.04353e-66
9.91764e-67
9.38442e-67
8.84362e-67
8.30227e-67
7.7664e-67
7.24111e-67
6.73062e-67
6.23833e-67
5.7669e-67
5.3183e-67
4.89393e-67
4.49466e-67
4.1209e-67
3.7727e-67
3.44979e-67
3.15166e-67
2.87758e-67
2.62669e-67
2.39802e-67
2.19052e-67
2.00313e-67
1.83475e-67
1.68432e-67
1.5508e-67
1.43323e-67
1.33068e-67
1.24231e-67
1.16736e-67
1.10518e-67
1.05517e-67
1.01686e-67
9.89878e-68
9.73931e-68
9.6884e-68
9.74521e-68
9.90984e-68
1.01834e-67
1.05678e-67
1.10659e-67
1.16815e-67
1.24191e-67
1.32837e-67
1.42812e-67
1.54179e-67
1.67004e-67
1.81357e-67
1.97306e-67
2.1492e-67
2.34262e-67
2.5539e-67
2.78348e-67
3.03172e-67
3.29875e-67
3.5845e-67
3.88865e-67
4.21054e-67
4.54914e-67
4.903e-67
5.27018e-67
5.64821e-67
6.03404e-67
6.42396e-67
6.81361e-67
7.19792e-67
7.57109e-67
7.92661e-67
8.25726e-67
8.55518e-67
8.8119e-67
9.0185e-67
9.16569e-67
9.244e-67
1.5587e-66
1.54575e-66
1.52138e-66
1.48714e-66
1.44455e-66
1.39505e-66
1.34005e-66
1.28083e-66
1.21858e-66
1.15437e-66
1.08916e-66
1.02379e-66
9.58986e-67
8.95369e-67
8.33448e-67
7.73639e-67
7.16271e-67
6.61592e-67
6.09778e-67
5.60944e-67
5.15152e-67
4.72418e-67
4.32718e-67
3.96e-67
3.62186e-67
3.3118e-67
3.02871e-67
2.7714e-67
2.53864e-67
2.32917e-67
2.14173e-67
1.97513e-67
1.8282e-67
1.69987e-67
1.58913e-67
1.49509e-67
1.41694e-67
1.354e-67
1.3057e-67
1.27157e-67
1.25127e-67
1.24457e-67
1.25138e-67
1.27169e-67
1.30562e-67
1.3534e-67
1.41536e-67
1.49194e-67
1.58365e-67
1.69109e-67
1.81493e-67
1.95591e-67
2.11479e-67
2.29236e-67
2.48941e-67
2.70671e-67
2.94496e-67
3.2048e-67
3.48671e-67
3.79102e-67
4.11784e-67
4.46701e-67
4.83804e-67
5.23007e-67
5.64179e-67
6.07139e-67
6.51646e-67
6.974e-67
7.44028e-67
7.91083e-67
8.38041e-67
8.84292e-67
9.29146e-67
9.71826e-67
1.01147e-66
1.04716e-66
1.07788e-66
1.10257e-66
1.12015e-66
1.12949e-66
1.89216e-66
1.87673e-66
1.84769e-66
1.80685e-66
1.75601e-66
1.69689e-66
1.63113e-66
1.56027e-66
1.48571e-66
1.40873e-66
1.33048e-66
1.25195e-66
1.17401e-66
1.09741e-66
1.02275e-66
9.5056e-67
8.8122e-67
8.15043e-67
7.52248e-67
6.92982e-67
6.3733e-67
5.85319e-67
5.36932e-67
4.92114e-67
4.50781e-67
4.12825e-67
3.78122e-67
3.46534e-67
3.1792e-67
2.92134e-67
2.69029e-67
2.48466e-67
2.30308e-67
2.14429e-67
2.0071e-67
1.89046e-67
1.79341e-67
1.71514e-67
1.65495e-67
1.61231e-67
1.58679e-67
1.57813e-67
1.58619e-67
1.61096e-67
1.65258e-67
1.71131e-67
1.78753e-67
1.88173e-67
1.99453e-67
2.1266e-67
2.27874e-67
2.45177e-67
2.64659e-67
2.86409e-67
3.10518e-67
3.37072e-67
3.66151e-67
3.97823e-67
4.3214e-67
4.69135e-67
5.08813e-67
5.51148e-67
5.96076e-67
6.43484e-67
6.9321e-67
7.45029e-67
7.9865e-67
8.53708e-67
9.09752e-67
9.66249e-67
1.02257e-66
1.07798e-66
1.13167e-66
1.18271e-66
1.23009e-66
1.27269e-66
1.30934e-66
1.33878e-66
1.35972e-66
1.37084e-66
2.28538e-66
2.26703e-66
2.23247e-66
2.18385e-66
2.12328e-66
2.05282e-66
1.9744e-66
1.88983e-66
1.8008e-66
1.7088e-66
1.6152e-66
1.5212e-66
1.42782e-66
1.33596e-66
1.24636e-66
1.15961e-66
1.07622e-66
9.96538e-67
9.20849e-67
8.49335e-67
7.82102e-67
7.19196e-67
6.60603e-67
6.06268e-67
5.56097e-67
5.09969e-67
4.67743e-67
4.29263e-67
3.94364e-67
3.62877e-67
3.34633e-67
3.09467e-67
2.87222e-67
2.67746e-67
2.50903e-67
2.36566e-67
2.24625e-67
2.14981e-67
2.07554e-67
2.02278e-67
1.99103e-67
1.97997e-67
1.98942e-67
2.01938e-67
2.07e-67
2.14156e-67
2.23451e-67
2.34941e-67
2.48697e-67
2.64799e-67
2.83336e-67
3.04405e-67
3.28107e-67
3.54546e-67
3.83825e-67
4.16042e-67
4.51286e-67
4.89632e-67
5.31137e-67
5.75832e-67
6.23718e-67
6.74755e-67
7.28861e-67
7.85895e-67
8.45657e-67
9.07873e-67
9.72191e-67
1.03817e-66
1.10527e-66
1.17286e-66
1.24018e-66
1.30637e-66
1.37045e-66
1.43133e-66
1.4878e-66
1.53855e-66
1.58218e-66
1.61721e-66
1.64212e-66
1.65534e-66
2.74966e-66
2.72786e-66
2.68678e-66
2.62896e-66
2.55692e-66
2.47306e-66
2.3797e-66
2.27897e-66
2.17285e-66
2.06315e-66
1.95147e-66
1.83923e-66
1.72767e-66
1.61785e-66
1.51063e-66
1.40677e-66
1.30682e-66
1.21126e-66
1.12039e-66
1.03447e-66
9.53608e-67
8.77881e-67
8.07279e-67
7.41742e-67
6.81168e-67
6.2542e-67
5.74336e-67
5.27738e-67
4.85434e-67
4.47228e-67
4.12924e-67
3.8233e-67
3.55261e-67
3.3154e-67
3.11007e-67
2.93513e-67
2.78926e-67
2.67133e-67
2.58037e-67
2.51559e-67
2.47642e-67
2.46245e-67
2.47347e-67
2.50948e-67
2.57062e-67
2.65723e-67
2.76982e-67
2.90905e-67
3.07572e-67
3.27076e-67
3.4952e-67
3.75015e-67
4.03679e-67
4.35631e-67
4.70987e-67
5.0986e-67
5.5235e-67
5.98541e-67
6.48494e-67
7.0224e-67
7.59773e-67
8.21041e-67
8.85936e-67
9.54289e-67
1.02585e-66
1.1003e-66
1.1772e-66
1.25603e-66
1.33616e-66
1.4168e-66
1.49708e-66
1.57596e-66
1.65229e-66
1.72476e-66
1.79196e-66
1.85232e-66
1.90419e-66
1.94582e-66
1.97541e-66
1.99112e-66
3.29835e-66
3.27246e-66
3.22367e-66
3.15499e-66
3.06937e-66
2.96969e-66
2.85866e-66
2.73884e-66
2.61255e-66
2.48194e-66
2.34892e-66
2.21517e-66
2.08215e-66
1.95113e-66
1.82315e-66
1.69909e-66
1.57964e-66
1.46534e-66
1.35659e-66
1.25368e-66
1.15676e-66
1.06593e-66
9.81174e-67
9.02436e-67
8.29602e-67
7.62515e-67
7.0099e-67
6.44821e-67
5.93785e-67
5.47656e-67
5.06205e-67
4.69206e-67
4.36442e-67
4.0771e-67
3.82819e-67
3.61594e-67
3.43881e-67
3.29545e-67
3.18472e-67
3.10569e-67
3.05768e-67
3.0402e-67
3.05301e-67
3.09606e-67
3.16953e-67
3.27382e-67
3.4095e-67
3.57733e-67
3.77824e-67
4.0133e-67
4.28371e-67
4.59075e-67
4.93578e-67
5.32017e-67
5.74526e-67
6.21233e-67
6.72252e-67
7.27676e-67
7.87574e-67
8.51975e-67
9.20866e-67
9.9418e-67
1.07178e-66
1.15347e-66
1.23894e-66
1.32779e-66
1.41953e-66
1.51351e-66
1.60898e-66
1.70503e-66
1.80059e-66
1.89445e-66
1.98524e-66
2.0714e-66
2.15126e-66
2.22297e-66
2.28458e-66
2.33402e-66
2.36914e-66
2.38778e-66
3.94724e-66
3.91652e-66
3.8586e-66
3.77706e-66
3.67539e-66
3.55699e-66
3.42508e-66
3.28267e-66
3.13254e-66
2.97722e-66
2.81897e-66
2.65979e-66
2.50143e-66
2.34537e-66
2.19287e-66
2.04497e-66
1.90249e-66
1.76608e-66
1.63623e-66
1.51327e-66
1.39741e-66
1.28875e-66
1.18729e-66
1.09298e-66
1.00568e-66
9.25219e-67
8.51375e-67
7.83912e-67
7.22574e-67
6.67093e-67
6.17205e-67
5.72645e-67
5.33159e-67
4.98508e-67
4.68468e-67
4.42834e-67
4.21425e-67
4.04081e-67
3.90668e-67
3.81078e-67
3.75226e-67
3.73056e-67
3.74538e-67
3.79667e-67
3.88462e-67
4.00968e-67
4.17251e-67
4.374e-67
4.61521e-67
4.8974e-67
5.22195e-67
5.59036e-67
6.00417e-67
6.46498e-67
6.97435e-67
7.53372e-67
8.14442e-67
8.80749e-67
9.52367e-67
1.02933e-66
1.11161e-66
1.19913e-66
1.29172e-66
1.38912e-66
1.49099e-66
1.59685e-66
1.70609e-66
1.81796e-66
1.93155e-66
2.04578e-66
2.1594e-66
2.27095e-66
2.37881e-66
2.48116e-66
2.57599e-66
2.66112e-66
2.73424e-66
2.7929e-66
2.83457e-66
2.85668e-66
4.71505e-66
4.6786e-66
4.60988e-66
4.51311e-66
4.39243e-66
4.25187e-66
4.09525e-66
3.92612e-66
3.74778e-66
3.56323e-66
3.37515e-66
3.18591e-66
2.99757e-66
2.81192e-66
2.63044e-66
2.45435e-66
2.28466e-66
2.12213e-66
1.96734e-66
1.8207e-66
1.68246e-66
1.55275e-66
1.43158e-66
1.31887e-66
1.2145e-66
1.11823e-66
1.02984e-66
9.49047e-67
8.75541e-67
8.09018e-67
7.49165e-67
6.95674e-67
6.48247e-67
6.06603e-67
5.70479e-67
5.39635e-67
5.13855e-67
4.92954e-67
4.76771e-67
4.65179e-67
4.5808e-67
4.55405e-67
4.57117e-67
4.6321e-67
4.73706e-67
4.88655e-67
5.08135e-67
5.32248e-67
5.61119e-67
5.94893e-67
6.3373e-67
6.77803e-67
7.27295e-67
7.82388e-67
8.43263e-67
9.10088e-67
9.83013e-67
1.06216e-66
1.1476e-66
1.23939e-66
1.33747e-66
1.44175e-66
1.55203e-66
1.668e-66
1.78924e-66
1.91518e-66
2.04509e-66
2.17809e-66
2.31309e-66
2.44881e-66
2.58377e-66
2.71624e-66
2.8443e-66
2.96578e-66
3.07831e-66
3.17932e-66
3.26606e-66
3.33563e-66
3.38505e-66
3.41126e-66
5.6239e-66
5.58067e-66
5.49916e-66
5.38435e-66
5.24118e-66
5.07438e-66
4.88849e-66
4.68773e-66
4.47601e-66
4.25686e-66
4.03347e-66
3.80866e-66
3.58487e-66
3.3642e-66
3.14843e-66
2.93903e-66
2.73715e-66
2.54374e-66
2.35947e-66
2.18484e-66
2.02014e-66
1.86555e-66
1.72107e-66
1.58663e-66
1.46207e-66
1.34714e-66
1.24157e-66
1.14501e-66
1.05713e-66
9.77556e-67
9.05928e-67
8.41883e-67
7.85071e-67
7.35162e-67
6.91846e-67
6.5484e-67
6.23892e-67
5.98781e-67
5.79321e-67
5.65358e-67
5.56777e-67
5.53497e-67
5.55473e-67
5.62697e-67
5.75193e-67
5.9302e-67
6.16268e-67
6.45055e-67
6.79526e-67
7.19851e-67
7.66217e-67
8.18825e-67
8.77887e-67
9.43616e-67
1.01622e-66
1.0959e-66
1.18282e-66
1.27712e-66
1.3789e-66
1.48818e-66
1.60493e-66
1.72902e-66
1.86019e-66
1.9981e-66
2.14223e-66
2.29189e-66
2.44625e-66
2.60422e-66
2.76454e-66
2.92568e-66
3.08587e-66
3.24308e-66
3.39502e-66
3.53914e-66
3.67262e-66
3.79241e-66
3.89527e-66
3.97777e-66
4.03635e-66
4.06743e-66
6.70004e-66
6.64877e-66
6.5521e-66
6.41594e-66
6.24611e-66
6.04824e-66
5.8277e-66
5.58948e-66
5.33822e-66
5.07811e-66
4.81293e-66
4.546e-66
4.28024e-66
4.01814e-66
3.7618e-66
3.51296e-66
3.27301e-66
3.04306e-66
2.82392e-66
2.61617e-66
2.42019e-66
2.23616e-66
2.06413e-66
1.90399e-66
1.75556e-66
1.61856e-66
1.49266e-66
1.37748e-66
1.2726e-66
1.1776e-66
1.09205e-66
1.01553e-66
9.4762e-67
8.87937e-67
8.36116e-67
7.91823e-67
7.54761e-67
7.2467e-67
7.01328e-67
6.84557e-67
6.74217e-67
6.70214e-67
6.72495e-67
6.81046e-67
6.95898e-67
7.17117e-67
7.44808e-67
7.79109e-67
8.20189e-67
8.68247e-67
9.235e-67
9.86185e-67
1.05655e-66
1.13484e-66
1.2213e-66
1.31615e-66
1.41961e-66
1.53182e-66
1.65289e-66
1.78286e-66
1.92167e-66
2.06916e-66
2.22504e-66
2.38888e-66
2.56007e-66
2.7378e-66
2.92106e-66
3.10858e-66
3.29884e-66
3.49004e-66
3.68009e-66
3.86658e-66
4.04679e-66
4.21769e-66
4.37597e-66
4.518e-66
4.63994e-66
4.73772e-66
4.80716e-66
4.844e-66
7.97452e-66
7.91373e-66
7.7991e-66
7.63764e-66
7.43623e-66
7.20156e-66
6.93997e-66
6.65739e-66
6.3593e-66
6.05069e-66
5.73601e-66
5.41922e-66
5.10377e-66
4.79261e-66
4.48824e-66
4.19271e-66
3.90769e-66
3.63449e-66
3.37408e-66
3.12715e-66
2.89414e-66
2.67529e-66
2.47065e-66
2.28011e-66
2.10345e-66
1.94035e-66
1.79041e-66
1.65319e-66
1.5282e-66
1.41496e-66
1.31294e-66
1.22166e-66
1.14062e-66
1.06938e-66
1.0075e-66
9.54582e-67
9.10285e-67
8.74299e-67
8.46362e-67
8.26263e-67
8.13837e-67
8.08972e-67
8.11603e-67
8.21717e-67
8.39344e-67
8.64564e-67
8.97499e-67
9.38309e-67
9.87194e-67
1.04438e-66
1.11014e-66
1.18472e-66
1.26844e-66
1.36157e-66
1.4644e-66
1.5772e-66
1.7002e-66
1.83358e-66
1.97746e-66
2.13188e-66
2.29678e-66
2.47195e-66
2.65705e-66
2.85157e-66
3.05477e-66
3.2657e-66
3.48315e-66
3.70563e-66
3.93132e-66
4.15811e-66
4.38349e-66
4.60463e-66
4.8183e-66
5.02091e-66
5.20854e-66
5.37689e-66
5.52142e-66
5.63732e-66
5.71961e-66
5.76326e-66
9.48416e-66
9.41209e-66
9.27619e-66
9.08474e-66
8.84593e-66
8.56765e-66
8.25743e-66
7.9223e-66
7.56874e-66
7.20266e-66
6.82936e-66
6.45351e-66
6.07921e-66
5.70995e-66
5.3487e-66
4.9979e-66
4.65952e-66
4.33511e-66
4.02584e-66
3.73252e-66
3.45569e-66
3.19563e-66
2.95239e-66
2.72587e-66
2.51579e-66
2.32179e-66
2.14341e-66
1.98011e-66
1.83134e-66
1.6965e-66
1.575e-66
1.46625e-66
1.36969e-66
1.28476e-66
1.21097e-66
1.14786e-66
1.095e-66
1.05203e-66
1.01865e-66
9.94609e-67
9.79709e-67
9.73816e-67
9.76855e-67
9.88806e-67
1.00971e-66
1.03965e-66
1.07878e-66
1.12728e-66
1.18538e-66
1.25336e-66
1.33152e-66
1.42018e-66
1.51968e-66
1.63036e-66
1.75255e-66
1.88656e-66
2.03266e-66
2.19108e-66
2.36194e-66
2.54529e-66
2.74104e-66
2.94896e-66
3.16863e-66
3.39944e-66
3.64052e-66
3.89073e-66
4.14865e-66
4.4125e-66
4.68014e-66
4.94904e-66
5.21625e-66
5.47841e-66
5.73169e-66
5.97185e-66
6.19423e-66
6.39375e-66
6.56503e-66
6.70236e-66
6.79988e-66
6.8516e-66
1.12726e-65
1.11871e-65
1.1026e-65
1.0799e-65
1.05159e-65
1.0186e-65
9.81814e-66
9.42074e-66
9.00147e-66
8.56731e-66
8.12456e-66
7.67875e-66
7.23474e-66
6.79667e-66
6.36805e-66
5.95178e-66
5.5502e-66
5.16516e-66
4.79802e-66
4.44977e-66
4.12105e-66
3.81219e-66
3.52326e-66
3.25414e-66
3.00451e-66
2.77393e-66
2.56188e-66
2.36771e-66
2.19078e-66
2.03039e-66
1.88583e-66
1.75641e-66
1.64146e-66
1.54035e-66
1.45246e-66
1.37726e-66
1.31427e-66
1.26304e-66
1.22321e-66
1.1945e-66
1.17666e-66
1.16954e-66
1.17305e-66
1.18717e-66
1.21194e-66
1.24746e-66
1.2939e-66
1.35149e-66
1.42049e-66
1.50123e-66
1.59406e-66
1.69935e-66
1.81751e-66
1.94894e-66
2.09403e-66
2.25313e-66
2.42657e-66
2.61461e-66
2.81739e-66
3.03496e-66
3.26722e-66
3.51389e-66
3.77447e-66
4.04823e-66
4.33414e-66
4.63086e-66
4.93668e-66
5.24951e-66
5.5668e-66
5.88556e-66
6.20229e-66
6.51301e-66
6.81319e-66
7.09781e-66
7.36133e-66
7.59777e-66
7.80072e-66
7.96345e-66
8.07899e-66
8.14026e-66
1.33914e-65
1.32901e-65
1.30992e-65
1.28301e-65
1.24944e-65
1.21033e-65
1.16672e-65
1.1196e-65
1.06989e-65
1.01841e-65
9.65903e-66
9.13034e-66
8.60374e-66
8.08415e-66
7.57572e-66
7.08191e-66
6.60547e-66
6.1486e-66
5.71293e-66
5.29963e-66
4.90946e-66
4.54281e-66
4.19977e-66
3.88019e-66
3.58373e-66
3.30985e-66
3.05792e-66
2.82721e-66
2.61694e-66
2.42629e-66
2.25443e-66
2.10054e-66
1.96383e-66
1.84354e-66
1.73897e-66
1.64947e-66
1.57446e-66
1.51344e-66
1.46598e-66
1.43173e-66
1.41041e-66
1.40184e-66
1.4059e-66
1.42257e-66
1.4519e-66
1.49401e-66
1.5491e-66
1.61743e-66
1.69932e-66
1.79515e-66
1.90532e-66
2.0303e-66
2.17053e-66
2.32651e-66
2.49868e-66
2.68747e-66
2.89326e-66
3.11634e-66
3.3569e-66
3.61497e-66
3.89044e-66
4.18297e-66
4.49198e-66
4.81658e-66
5.15556e-66
5.50733e-66
5.86986e-66
6.24067e-66
6.61675e-66
6.99454e-66
7.36992e-66
7.73814e-66
8.09386e-66
8.43112e-66
8.74337e-66
9.02352e-66
9.26398e-66
9.45678e-66
9.59366e-66
9.66626e-66
1.59019e-65
1.57819e-65
1.55555e-65
1.52366e-65
1.48387e-65
1.4375e-65
1.3858e-65
1.32994e-65
1.271e-65
1.20996e-65
1.14771e-65
1.08502e-65
1.02258e-65
9.60959e-66
9.00662e-66
8.42093e-66
7.85582e-66
7.31386e-66
6.79701e-66
6.30665e-66
5.84369e-66
5.40858e-66
5.00146e-66
4.62213e-66
4.27019e-66
3.94503e-66
3.64588e-66
3.3719e-66
3.12215e-66
2.89567e-66
2.69148e-66
2.50861e-66
2.34612e-66
2.20313e-66
2.07879e-66
1.97235e-66
1.88313e-66
1.81052e-66
1.75401e-66
1.71319e-66
1.68774e-66
1.67743e-66
1.68213e-66
1.70181e-66
1.73653e-66
1.78644e-66
1.85175e-66
1.93279e-66
2.02992e-66
2.14359e-66
2.27429e-66
2.42255e-66
2.58891e-66
2.77393e-66
2.97816e-66
3.20209e-66
3.44616e-66
3.71072e-66
3.99598e-66
4.302e-66
4.62862e-66
4.97544e-66
5.34177e-66
5.72656e-66
6.12838e-66
6.54532e-66
6.975e-66
7.41447e-66
7.86015e-66
8.30785e-66
8.75266e-66
9.18898e-66
9.61047e-66
1.00101e-65
1.038e-65
1.07119e-65
1.09968e-65
1.12252e-65
1.13874e-65
1.14734e-65
1.88767e-65
1.87344e-65
1.84661e-65
1.8088e-65
1.76164e-65
1.70667e-65
1.64539e-65
1.57917e-65
1.5093e-65
1.43694e-65
1.36313e-65
1.28881e-65
1.21477e-65
1.14171e-65
1.07021e-65
1.00076e-65
9.33737e-66
8.69461e-66
8.08159e-66
7.49994e-66
6.95074e-66
6.43455e-66
5.95151e-66
5.50141e-66
5.08376e-66
4.69785e-66
4.34277e-66
4.01753e-66
3.72102e-66
3.4521e-66
3.20962e-66
2.99242e-66
2.79941e-66
2.62952e-66
2.48178e-66
2.35528e-66
2.24921e-66
2.16286e-66
2.09564e-66
2.04703e-66
2.01668e-66
2.00431e-66
2.00976e-66
2.033e-66
2.07408e-66
2.1332e-66
2.21061e-66
2.30667e-66
2.42184e-66
2.55663e-66
2.71162e-66
2.88742e-66
3.0847e-66
3.3041e-66
3.54626e-66
3.81178e-66
4.10116e-66
4.41482e-66
4.75301e-66
5.11578e-66
5.50296e-66
5.91406e-66
6.34826e-66
6.80432e-66
7.28054e-66
7.77466e-66
8.28385e-66
8.80461e-66
9.33272e-66
9.86319e-66
1.03902e-65
1.09072e-65
1.14066e-65
1.188e-65
1.23183e-65
1.27115e-65
1.3049e-65
1.33196e-65
1.35117e-65
1.36136e-65
2.24017e-65
2.22331e-65
2.1915e-65
2.14669e-65
2.09079e-65
2.02563e-65
1.95299e-65
1.87449e-65
1.79167e-65
1.70589e-65
1.6184e-65
1.53028e-65
1.44251e-65
1.35589e-65
1.27111e-65
1.18876e-65
1.1093e-65
1.03308e-65
9.6038e-66
8.91399e-66
8.26263e-66
7.65036e-66
7.07738e-66
6.54344e-66
6.04795e-66
5.59007e-66
5.16875e-66
4.78278e-66
4.43088e-66
4.11169e-66
3.82384e-66
3.56599e-66
3.33682e-66
3.13508e-66
2.9596e-66
2.80933e-66
2.68331e-66
2.58068e-66
2.50075e-66
2.44292e-66
2.40675e-66
2.39192e-66
2.39825e-66
2.42568e-66
2.4743e-66
2.54431e-66
2.63603e-66
2.74987e-66
2.88638e-66
3.04616e-66
3.22989e-66
3.43831e-66
3.67217e-66
3.93227e-66
4.21934e-66
4.53409e-66
4.87712e-66
5.24891e-66
5.64976e-66
6.07973e-66
6.5386e-66
7.02581e-66
7.54038e-66
8.08083e-66
8.64514e-66
9.23064e-66
9.83399e-66
1.0451e-65
1.10767e-65
1.17053e-65
1.23297e-65
1.29421e-65
1.35338e-65
1.40946e-65
1.46139e-65
1.50797e-65
1.54795e-65
1.58e-65
1.60276e-65
1.61483e-65
2.65788e-65
2.63789e-65
2.60019e-65
2.54708e-65
2.48082e-65
2.4036e-65
2.31749e-65
2.22445e-65
2.12627e-65
2.02459e-65
1.92088e-65
1.81643e-65
1.71237e-65
1.60969e-65
1.50918e-65
1.41155e-65
1.31733e-65
1.22696e-65
1.14076e-65
1.05897e-65
9.81726e-66
9.09117e-66
8.41163e-66
7.77835e-66
7.19064e-66
6.64749e-66
6.14768e-66
5.68978e-66
5.27225e-66
4.89351e-66
4.55192e-66
4.2459e-66
3.97389e-66
3.73441e-66
3.52609e-66
3.34765e-66
3.19798e-66
3.07607e-66
2.98108e-66
2.91231e-66
2.86924e-66
2.85149e-66
2.85884e-66
2.89123e-66
2.94875e-66
3.03165e-66
3.14029e-66
3.27518e-66
3.43694e-66
3.62629e-66
3.84405e-66
4.09106e-66
4.36825e-66
4.67652e-66
5.01676e-66
5.38979e-66
5.79634e-66
6.23695e-66
6.71199e-66
7.22153e-66
7.76531e-66
8.34264e-66
8.95237e-66
9.59275e-66
1.02614e-65
1.09551e-65
1.167e-65
1.2401e-65
1.31423e-65
1.38869e-65
1.46267e-65
1.53522e-65
1.60531e-65
1.67175e-65
1.73326e-65
1.78845e-65
1.83581e-65
1.87378e-65
1.90073e-65
1.91503e-65
3.15287e-65
3.12918e-65
3.0845e-65
3.02155e-65
2.94302e-65
2.85149e-65
2.74943e-65
2.63915e-65
2.52278e-65
2.40226e-65
2.27933e-65
2.15551e-65
2.03217e-65
1.91044e-65
1.7913e-65
1.67556e-65
1.56386e-65
1.45672e-65
1.35452e-65
1.25754e-65
1.16596e-65
1.07986e-65
9.99283e-66
9.24184e-66
8.54486e-66
7.9007e-66
7.30788e-66
6.76475e-66
6.26947e-66
5.82017e-66
5.41491e-66
5.05182e-66
4.72905e-66
4.44486e-66
4.19761e-66
3.98581e-66
3.80811e-66
3.66334e-66
3.5505e-66
3.46877e-66
3.41751e-66
3.39628e-66
3.40483e-66
3.44307e-66
3.51112e-66
3.60926e-66
3.73793e-66
3.89773e-66
4.08938e-66
4.31375e-66
4.57178e-66
4.86449e-66
5.19296e-66
5.55827e-66
5.96146e-66
6.4035e-66
6.88525e-66
7.40737e-66
7.97026e-66
8.57401e-66
9.21832e-66
9.90238e-66
1.06248e-65
1.13835e-65
1.21757e-65
1.29976e-65
1.38445e-65
1.47105e-65
1.55888e-65
1.64709e-65
1.73472e-65
1.82067e-65
1.9037e-65
1.9824e-65
2.05527e-65
2.12063e-65
2.17674e-65
2.22171e-65
2.25364e-65
2.27058e-65
3.73945e-65
3.71138e-65
3.65842e-65
3.58382e-65
3.49074e-65
3.38225e-65
3.26129e-65
3.13059e-65
2.99266e-65
2.84981e-65
2.70409e-65
2.55734e-65
2.41113e-65
2.26684e-65
2.12562e-65
1.98841e-65
1.85601e-65
1.729e-65
1.60784e-65
1.49287e-65
1.38428e-65
1.28221e-65
1.18667e-65
1.09762e-65
1.01498e-65
9.3859e-66
8.6829e-66
8.03878e-66
7.45137e-66
6.91846e-66
6.43777e-66
6.00706e-66
5.62415e-66
5.28697e-66
4.9936e-66
4.74225e-66
4.53134e-66
4.35948e-66
4.22548e-66
4.12837e-66
4.0674e-66
4.04204e-66
4.05198e-66
4.09714e-66
4.17765e-66
4.29382e-66
4.4462e-66
4.63547e-66
4.86251e-66
5.12832e-66
5.43403e-66
5.78085e-66
6.17004e-66
6.60288e-66
7.08061e-66
7.60437e-66
8.17517e-66
8.79379e-66
9.46071e-66
1.0176e-65
1.09394e-65
1.17498e-65
1.26057e-65
1.35046e-65
1.44431e-65
1.54167e-65
1.642e-65
1.7446e-65
1.84864e-65
1.95313e-65
2.05694e-65
2.15876e-65
2.2571e-65
2.35034e-65
2.43665e-65
2.51407e-65
2.58053e-65
2.6338e-65
2.67163e-65
2.69169e-65
4.43458e-65
4.40131e-65
4.33855e-65
4.25013e-65
4.13981e-65
4.01123e-65
3.86787e-65
3.71296e-65
3.54948e-65
3.38017e-65
3.20746e-65
3.03352e-65
2.86022e-65
2.68919e-65
2.5218e-65
2.35917e-65
2.20221e-65
2.05165e-65
1.90804e-65
1.77174e-65
1.64302e-65
1.522e-65
1.40874e-65
1.30316e-65
1.20518e-65
1.11461e-65
1.03125e-65
9.54869e-66
8.85213e-66
8.22015e-66
7.65007e-66
7.13922e-66
6.68505e-66
6.28509e-66
5.93705e-66
5.63884e-66
5.38858e-66
5.18461e-66
5.02552e-66
4.91018e-66
4.83768e-66
4.8074e-66
4.81898e-66
4.87231e-66
4.96754e-66
5.10506e-66
5.28549e-66
5.50966e-66
5.77859e-66
6.09347e-66
6.45564e-66
6.86652e-66
7.3276e-66
7.84041e-66
8.40639e-66
9.02692e-66
9.70317e-66
1.04361e-65
1.12262e-65
1.20736e-65
1.2978e-65
1.39381e-65
1.4952e-65
1.60169e-65
1.71286e-65
1.82821e-65
1.94705e-65
2.06859e-65
2.19183e-65
2.31561e-65
2.43858e-65
2.55918e-65
2.67568e-65
2.78611e-65
2.88835e-65
2.98006e-65
3.05878e-65
3.12188e-65
3.16668e-65
3.19044e-65
5.25834e-65
5.2189e-65
5.14453e-65
5.03973e-65
4.90899e-65
4.75661e-65
4.58669e-65
4.40309e-65
4.20934e-65
4.00867e-65
3.80398e-65
3.59781e-65
3.39242e-65
3.1897e-65
2.99129e-65
2.79853e-65
2.61249e-65
2.43403e-65
2.26379e-65
2.10222e-65
1.94963e-65
1.80618e-65
1.6719e-65
1.54675e-65
1.43058e-65
1.3232e-65
1.22437e-65
1.13381e-65
1.05122e-65
9.76285e-66
9.08684e-66
8.48105e-66
7.94242e-66
7.46806e-66
7.05524e-66
6.7015e-66
6.40459e-66
6.16255e-66
5.97373e-66
5.83676e-66
5.75058e-66
5.71446e-66
5.72795e-66
5.79094e-66
5.90359e-66
6.06637e-66
6.28e-66
6.54548e-66
6.864e-66
7.23698e-66
7.66599e-66
8.15272e-66
8.69894e-66
9.30643e-66
9.97694e-66
1.07121e-65
1.15132e-65
1.23814e-65
1.33174e-65
1.43214e-65
1.53927e-65
1.653e-65
1.77311e-65
1.89925e-65
2.03095e-65
2.16758e-65
2.30836e-65
2.45233e-65
2.59831e-65
2.74493e-65
2.89059e-65
3.03345e-65
3.17144e-65
3.30225e-65
3.42334e-65
3.53198e-65
3.62521e-65
3.69996e-65
3.75302e-65
3.78117e-65
6.23454e-65
6.1878e-65
6.09965e-65
5.97546e-65
5.82051e-65
5.63991e-65
5.43854e-65
5.22094e-65
4.99132e-65
4.75349e-65
4.51088e-65
4.26653e-65
4.02309e-65
3.78283e-65
3.54767e-65
3.31919e-65
3.09869e-65
2.88716e-65
2.68537e-65
2.49387e-65
2.313e-65
2.14295e-65
1.98378e-65
1.83542e-65
1.69771e-65
1.57041e-65
1.45325e-65
1.34589e-65
1.24797e-65
1.15912e-65
1.07896e-65
1.00713e-65
9.4326e-66
8.87007e-66
8.38049e-66
7.96092e-66
7.60872e-66
7.32156e-66
7.09749e-66
6.93487e-66
6.83246e-66
6.78938e-66
6.80511e-66
6.87951e-66
7.01277e-66
7.20544e-66
7.45838e-66
7.77275e-66
8.14999e-66
8.59176e-66
9.09991e-66
9.67646e-66
1.03235e-65
1.10431e-65
1.18374e-65
1.27082e-65
1.36572e-65
1.46857e-65
1.57945e-65
1.69837e-65
1.82528e-65
1.96001e-65
2.10228e-65
2.2517e-65
2.4077e-65
2.56955e-65
2.73631e-65
2.90683e-65
3.07975e-65