/*--------------------------------*- C++ -*----------------------------------*\
  =========                 |
  \\      /  F ield         | OpenFOAM: The Open Source CFD Toolbox
   \\    /   O peration     | Website:  https://openfoam.org
    \\  /    A nd           | Version:  11
     \\/     M anipulation  |
\*---------------------------------------------------------------------------*/
FoamFile
{
    format      ascii;
    class       volScalarField;
    location    "100";
    object      C;
}
// * * * * * * * * * * * * * * * * * * * * * * * * * * * * * * * * * * * * * //

dimensions      [0 0 0 1 0 0 0];

internalField   nonuniform List<scalar> 
427520
(
2.92617e-311
1.77811e-311
2.281e-311
-1.31752e-311
-2.91441e-311
-1.02064e-310
-1.14081e-310
-1.98514e-311
-3.57093e-311
2.45271e-311
2.31799e-311
4.67055e-311
4.30862e-311
-2.04848e-312
-7.08104e-311
-1.06587e-310
-8.55417e-311
-6.7963e-311
-7.16683e-311
-2.9522e-311
-4.62226e-311
-3.80812e-311
-1.51211e-311
-1.80348e-312
-3.38393e-311
1.19946e-311
-3.49355e-311
-8.48693e-311
-1.3608e-310
-7.62288e-311
-8.70255e-311
-5.00534e-311
-1.71332e-311
-6.73459e-312
1.34821e-311
3.08543e-312
8.84986e-312
3.90724e-313
-1.2884e-310
-9.85386e-311
-8.79572e-311
-7.37478e-311
-4.84616e-311
-8.36815e-312
1.87481e-311
-3.68453e-312
6.66631e-312
-3.45252e-311
7.15436e-311
4.76993e-311
4.26036e-311
3.4039e-311
1.83033e-311
2.29666e-311
6.71525e-311
1.1762e-310
6.89401e-311
2.3292e-311
-7.38157e-312
1.04044e-311
1.18357e-311
-2.15115e-311
6.46768e-312
2.02579e-311
-2.73899e-312
-4.19759e-311
-2.71658e-311
1.68188e-311
-1.53106e-311
4.62308e-311
-9.64136e-312
-3.1624e-311
-4.34159e-311
-6.04974e-311
-3.39112e-311
3.35727e-311
4.64788e-311
2.94728e-311
1.9884e-311
5.71979e-311
4.06647e-311
-5.74163e-312
2.05684e-311
1.52138e-311
-6.23037e-311
-1.37372e-310
-1.14193e-310
-2.54625e-311
-1.62481e-311
-1.00901e-310
-1.07345e-310
-7.91659e-311
-2.13016e-311
8.08329e-311
8.56092e-311
1.59509e-310
1.64751e-310
7.91822e-311
-2.11612e-311
-6.71047e-311
-9.09464e-311
-3.44903e-311
-6.52195e-311
-2.98003e-311
-5.31463e-312
6.03523e-311
3.57314e-311
2.00548e-312
-5.15378e-311
-1.88049e-311
-6.54493e-311
2.07248e-311
2.77365e-311
-4.49203e-311
-8.75581e-311
-6.97937e-311
5.4957e-311
1.19215e-310
1.17796e-310
6.71342e-311
7.5279e-312
-5.92337e-311
1.21737e-311
3.44218e-311
1.13498e-311
-1.11548e-311
-6.06167e-311
-1.58652e-311
2.78594e-311
6.31536e-312
1.2344e-311
-1.3427e-311
-9.43872e-311
-9.76624e-313
5.33199e-311
1.99392e-311
-1.32619e-311
8.434e-313
-1.66818e-311
3.41546e-311
-1.00848e-311
-5.16425e-311
2.61925e-312
-1.51939e-311
-4.61735e-312
-2.01574e-311
-2.28349e-311
-1.11731e-310
-1.06609e-310
-5.63935e-311
6.99875e-311
1.82172e-310
1.91558e-310
1.23665e-310
4.38664e-312
-3.98044e-311
1.52806e-311
5.16323e-311
5.58665e-311
9.69097e-311
2.00455e-311
-3.70404e-311
1.52636e-311
8.33094e-312
3.5736e-311
-2.16108e-312
6.51357e-311
9.97778e-311
6.39416e-311
-1.07423e-310
-1.9126e-310
-1.435e-310
2.62755e-311
2.93267e-311
2.01641e-311
1.02106e-310
-4.16361e-311
-2.36515e-311
3.10187e-311
1.44959e-312
-1.05084e-310
-1.35927e-310
-1.21013e-310
-7.14912e-311
-7.50924e-311
-7.43323e-311
1.11114e-311
1.89065e-310
1.90043e-310
9.22793e-311
1.412e-310
6.02738e-311
2.30305e-311
5.54493e-311
-5.05839e-311
-4.00717e-311
1.18057e-310
1.38825e-310
2.20544e-310
4.35687e-311
8.30087e-311
-3.32429e-311
1.73109e-311
-2.30065e-311
-5.09076e-311
-5.36125e-311
-4.50736e-311
-1.13221e-310
-1.83704e-310
-1.88527e-310
-1.24313e-311
8.54587e-311
-1.01495e-311
1.04819e-311
-1.02311e-310
-1.78904e-310
-9.49441e-311
-3.41131e-311
1.45911e-311
9.1163e-311
1.45928e-311
5.78944e-311
5.39889e-311
3.76542e-311
4.58901e-311
-7.01852e-311
-7.34023e-311
-1.99226e-311
-9.09265e-312
3.31712e-311
2.82636e-311
3.40493e-311
9.93428e-311
8.40046e-311
7.95527e-311
3.80428e-311
-8.95818e-312
-1.37151e-310
-1.87158e-310
-1.33141e-310
7.37979e-311
2.69589e-311
1.32233e-310
9.66755e-311
9.51423e-311
2.24088e-310
2.92867e-310
2.51546e-310
1.2271e-310
6.25609e-311
1.88265e-311
-6.55204e-311
-7.53032e-311
-8.80068e-311
-9.95933e-311
-1.35578e-310
-2.41218e-310
-2.19221e-310
-1.14581e-310
2.23137e-311
-3.93313e-311
-9.27471e-311
-7.49592e-311
-1.54388e-310
-1.28085e-310
-5.25765e-311
4.15401e-311
1.42657e-310
1.01367e-310
1.82154e-310
1.43327e-310
1.31061e-310
1.699e-311
-1.17852e-311
5.14691e-311
7.32395e-311
7.43413e-311
1.49082e-310
1.32903e-310
4.46074e-311
5.12663e-311
2.02725e-311
3.03381e-311
-6.88817e-311
8.48591e-311
3.71882e-311
-8.72025e-311
-2.6112e-310
-3.11208e-310
-2.18931e-310
-8.20276e-311
1.6962e-311
-2.19743e-311
1.60636e-312
1.84242e-311
-1.68387e-311
4.8767e-311
3.36273e-311
1.02164e-310
9.54732e-311
4.22942e-311
7.95502e-312
-1.93525e-311
-8.30513e-311
-8.96931e-311
-1.59545e-310
-2.30309e-310
-1.11486e-310
-6.75977e-312
-9.02815e-311
-2.69933e-310
-3.57794e-310
-1.4219e-310
-2.25275e-311
3.30257e-311
3.68354e-311
-5.51367e-311
-2.52196e-310
-3.82657e-310
-3.8211e-310
2.06212e-310
2.06193e-310
1.54085e-310
7.5704e-311
5.36457e-312
9.35886e-311
6.9661e-311
-5.13082e-312
7.8509e-312
1.8623e-310
2.34308e-310
5.4545e-311
5.08381e-312
5.22186e-311
1.77673e-311
-4.68671e-311
-2.17e-310
-2.87069e-310
-1.42112e-310
-4.0688e-311
-2.84553e-311
7.80129e-311
4.64824e-311
-6.93518e-311
-1.42274e-310
-7.31612e-312
-2.50977e-311
-1.4017e-310
-1.09568e-310
1.87251e-310
1.9655e-310
2.67349e-310
1.6179e-310
1.06727e-311
9.5818e-311
1.69238e-310
2.06574e-310
9.88993e-311
1.39594e-310
9.69901e-311
9.52375e-311
2.5627e-311
1.23101e-311
5.46669e-311
3.10647e-310
2.43059e-310
-1.10224e-311
-1.17023e-310
-1.70047e-310
-1.5162e-310
-1.61008e-310
-1.06032e-310
1.95741e-312
8.98507e-311
3.27918e-310
2.90214e-310
2.52461e-310
2.0035e-310
9.99075e-311
-4.08995e-311
-1.19865e-311
-1.10076e-310
-2.66052e-310
-2.97964e-310
-2.46839e-310
-2.16071e-310
-2.72061e-310
-1.68588e-310
-6.88925e-311
-1.96378e-310
-3.38695e-310
-2.62161e-310
1.27792e-311
6.35351e-311
-7.12549e-311
-1.70457e-310
-1.96801e-310
-1.62295e-310
-1.78703e-310
-1.90368e-310
5.31041e-310
5.6039e-310
3.92604e-310
2.26334e-310
-6.015e-311
-1.54473e-310
-2.26562e-310
-1.86912e-310
-9.37658e-311
8.62465e-311
1.83133e-310
1.56074e-310
1.88497e-310
2.27005e-310
2.49126e-310
6.27655e-311
-1.08488e-310
-1.72217e-310
-3.1424e-310
-2.89084e-310
-9.46748e-311
3.06169e-311
5.63764e-311
-8.21447e-311
-1.31253e-310
-8.34821e-311
-9.6265e-311
-1.59865e-310
-1.04954e-310
-6.91314e-311
-1.60354e-313
1.4861e-310
1.62397e-310
7.82972e-311
6.4467e-311
1.21869e-310
2.33197e-310
1.54945e-310
8.81997e-311
2.97169e-311
1.7878e-310
2.29512e-310
1.18617e-310
6.35426e-311
1.53763e-310
1.11391e-310
3.66777e-311
2.40701e-310
1.34832e-310
-1.86429e-310
-1.66134e-310
-8.77093e-311
3.10299e-311
2.86011e-310
3.50468e-310
3.16927e-310
1.7561e-310
1.59735e-310
3.51159e-311
-1.93108e-310
-1.25927e-310
-1.96277e-310
-3.11848e-310
-1.61621e-310
-1.33639e-310
-1.99313e-310
-2.60218e-311
7.38875e-311
1.21609e-310
6.58516e-312
-9.83638e-311
-2.30809e-311
6.9904e-311
2.89851e-311
-1.68489e-310
-2.53897e-310
-1.0953e-310
5.77098e-311
1.99629e-310
2.38943e-310
8.768e-310
1.00538e-309
8.84466e-310
6.72204e-310
4.24242e-310
1.81246e-310
-2.04233e-311
-8.5549e-311
-2.80859e-311
8.74949e-311
1.62633e-310
1.71126e-310
1.59702e-310
1.8636e-310
2.13779e-310
1.36077e-310
3.30409e-311
-8.46858e-311
-2.58615e-310
-3.46257e-310
-2.45462e-310
-9.34701e-311
-6.2527e-311
-1.38784e-310
-2.46709e-311
-5.92544e-311
-1.22458e-310
-1.01237e-310
-1.91218e-311
-8.48171e-311
-5.94171e-311
2.0318e-311
2.28525e-311
7.8617e-312
-1.18714e-310
-7.11759e-311
6.64229e-312
-3.10313e-311
-9.06166e-311
2.12166e-311
1.71469e-310
2.40365e-310
1.78869e-310
1.64506e-310
-8.24978e-312
-2.75127e-312
1.2709e-310
1.82189e-310
-7.01302e-312
-2.896e-310
-2.06555e-310
-8.25741e-311
2.70424e-311
2.21045e-310
2.57869e-310
1.25768e-310
-1.49476e-310
-2.83251e-310
-2.45236e-310
-2.20474e-310
-1.81804e-310
-2.01329e-310
-3.42448e-310
-1.87037e-310
-1.66246e-311
-1.20099e-311
3.84539e-311
5.08715e-311
4.24017e-311
-7.44863e-311
-3.93766e-311
4.44047e-311
-1.05609e-311
-2.08357e-310
-7.79581e-311
1.48453e-310
3.37695e-310
4.19204e-310
3.82721e-310
6.26504e-310
7.89479e-310
7.38408e-310
6.54542e-310
6.63291e-310
5.96142e-310
3.82974e-310
2.21305e-310
8.95302e-312
7.40363e-311
1.31567e-310
3.21085e-310
2.72064e-310
1.73717e-310
1.09079e-310
1.23339e-310
2.29452e-310
2.0362e-310
7.69219e-311
-1.12632e-310
-2.87333e-310
-3.57692e-310
-3.04838e-310
-1.8897e-310
-5.96112e-311
1.55628e-310
1.96942e-310
-2.56277e-311
-6.22709e-311
7.43396e-311
5.17941e-311
-3.53383e-311
-7.65721e-311
9.65394e-311
6.33905e-311
4.80341e-311
-7.79004e-311
-1.87883e-310
-1.20194e-310
1.45863e-311
1.26956e-310
1.15438e-310
1.34836e-310
2.34291e-310
2.87038e-310
1.95776e-311
-5.18944e-311
-9.60048e-311
-1.93478e-310
-2.88497e-310
-3.37683e-310
-1.29271e-310
-2.02386e-312
1.07094e-310
-5.82663e-311
-1.3921e-310
-2.38552e-310
-5.26002e-310
-5.44509e-310
-3.22363e-310
-1.43838e-310
-7.86258e-311
-1.38956e-310
-2.5125e-310
-1.80429e-310
-2.2199e-311
7.08359e-311
6.45021e-311
-5.4461e-311
-1.55959e-310
-2.74688e-310
-2.81059e-310
-7.0435e-311
-6.91766e-311
-2.1254e-310
-5.93123e-311
1.27211e-310
3.28977e-310
7.13168e-310
6.71652e-310
7.54251e-310
8.46734e-311
1.24295e-310
1.02086e-310
1.03909e-310
6.27931e-311
6.23065e-311
9.89107e-311
6.28551e-311
-4.53737e-311
1.15167e-310
3.5868e-310
3.99122e-310
3.29493e-310
1.87394e-310
1.51539e-310
2.61781e-310
3.82192e-310
3.37971e-310
1.01517e-310
-1.03804e-310
-2.87831e-310
-2.34232e-310
-2.06959e-310
6.07483e-311
2.6286e-310
3.42372e-310
1.3952e-310
1.23184e-311
5.22193e-312
-4.74876e-311
-1.13418e-310
-9.81279e-311
1.38382e-310
2.18195e-310
2.89472e-310
2.43024e-311
-3.20439e-310
-2.03807e-310
9.02187e-311
3.6467e-311
8.50261e-311
-2.40465e-311
4.58276e-311
7.33963e-311
-5.50348e-311
-3.01587e-310
-5.23509e-310
-4.67188e-310
-1.95382e-310
2.33208e-312
1.75507e-310
4.11819e-311
1.87847e-310
1.34991e-310
-2.16605e-310
-3.49718e-310
-4.86234e-310
-2.42886e-310
-4.43112e-311
-7.30223e-312
-2.446e-311
-1.72366e-310
-3.12829e-310
-1.15532e-310
3.17078e-311
5.25564e-311
1.55066e-311
-2.09837e-310
-1.98777e-310
-1.32049e-310
-1.01134e-310
4.8111e-311
6.45057e-312
-9.34805e-311
-1.42749e-310
-1.91732e-310
7.04735e-311
3.89459e-310
6.21167e-310
6.38454e-310
-4.52235e-310
-4.51968e-310
-3.32469e-310
-2.46859e-310
-9.8615e-311
-3.13211e-311
-9.26571e-312
-1.36509e-310
-2.0913e-310
-1.28382e-310
2.45689e-311
1.56063e-310
1.95139e-310
1.95376e-310
8.07859e-311
1.05384e-310
3.32594e-310
4.12637e-310
2.3299e-310
-2.20649e-311
-6.20986e-311
-3.3175e-311
-1.07727e-310
-3.45625e-311
2.13259e-310
3.19792e-310
1.28591e-310
-4.32734e-311
-2.15767e-312
-2.93505e-311
-1.84923e-310
-6.44523e-311
1.02487e-310
2.61715e-310
2.47437e-310
2.21979e-311
-1.69138e-310
-3.30178e-310
-1.45813e-310
-4.19544e-311
7.40866e-311
-1.31957e-310
-2.38335e-310
-1.92498e-310
-2.02045e-310
-4.43706e-310
-5.28111e-310
-2.54319e-310
1.16384e-310
3.14325e-310
3.31216e-310
4.04755e-311
-6.70652e-312
1.97537e-310
8.45264e-311
-1.88128e-310
-2.31332e-310
-7.34117e-311
9.89807e-311
-5.20693e-311
-1.49809e-310
-2.02158e-310
-1.9727e-310
-2.84715e-311
1.17643e-310
1.68515e-310
1.6835e-311
-5.62806e-311
-1.65874e-310
4.08177e-312
1.98274e-310
3.22669e-310
3.09975e-310
1.88653e-310
7.86383e-312
-6.43878e-311
4.14339e-311
1.10527e-310
7.80839e-311
1.21231e-310
-5.77436e-310
-6.85656e-310
-5.14951e-310
-2.4553e-310
7.58737e-311
1.96901e-310
2.29195e-311
-1.59806e-310
-2.49972e-310
-4.25112e-310
-3.00376e-310
-2.04035e-310
-2.64135e-311
6.14177e-311
1.07819e-312
1.10684e-310
3.26082e-310
3.56705e-310
3.04333e-310
1.05881e-310
8.3673e-311
-7.83798e-312
-8.25315e-311
-1.24539e-310
2.9168e-311
1.48063e-310
-4.91916e-311
-2.16088e-310
-5.16099e-311
-5.46914e-311
-2.72135e-310
-1.49157e-310
9.38385e-312
-5.87057e-311
-2.52382e-311
1.17466e-310
1.5656e-310
-9.7136e-311
-1.51232e-310
-2.45701e-311
1.78406e-311
1.09962e-311
-5.72134e-311
-1.56455e-310
-1.74812e-310
-2.85673e-310
-8.35431e-311
9.38479e-311
2.34059e-310
1.8928e-310
-4.52503e-311
-1.6395e-310
-2.67731e-310
-2.45128e-310
-2.05829e-311
-1.22989e-310
-1.93243e-310
-2.0999e-310
-1.26335e-310
-1.59202e-310
-1.33524e-310
-8.33785e-311
8.68948e-311
7.69925e-311
7.25611e-311
1.71772e-310
1.49934e-310
1.34259e-310
-4.45756e-311
-1.49121e-310
6.78083e-311
2.87878e-310
2.90361e-310
2.08928e-310
9.44158e-311
-5.29965e-311
-1.41232e-310
-5.97529e-311
-5.00502e-311
-5.008e-311
-4.37146e-310
-5.17232e-310
-4.08528e-310
-1.72264e-310
-2.7741e-312
9.17367e-311
-2.63496e-312
-8.5984e-311
-1.57571e-310
-2.74968e-310
-1.99775e-310
-1.40073e-310
-2.53817e-311
7.39168e-311
2.20131e-310
2.90341e-310
3.61374e-310
4.59562e-310
4.77702e-310
3.70225e-310
2.46738e-310
7.63182e-311
-2.87241e-311
-7.2757e-311
9.6945e-311
7.63852e-311
-7.75238e-312
-2.11675e-311
-3.13543e-311
-1.57923e-310
-1.76477e-310
-8.91642e-311
-1.6556e-310
-2.07597e-310
-4.25043e-311
7.68918e-311
1.81198e-310
1.20532e-310
5.81583e-312
-6.05656e-311
-8.68852e-311
8.49577e-311
9.19822e-311
4.7974e-311
-1.48463e-310
-1.11874e-310
1.13902e-310
1.87915e-310
2.6211e-310
-6.08874e-312
-3.07055e-310
-3.84183e-310
-3.05518e-310
-1.95182e-310
-1.47285e-310
-2.35188e-310
-2.65504e-310
-2.71231e-310
-1.53767e-310
2.00973e-311
1.73522e-310
2.29346e-310
1.77091e-310
1.94093e-310
1.70052e-310
1.90941e-310
7.62757e-311
-9.55094e-312
-3.46737e-311
-9.30586e-311
6.92516e-311
1.31418e-310
-6.77362e-311
-1.2362e-310
-2.99868e-311
-3.83906e-312
-1.09073e-310
-1.2284e-310
1.46236e-311
2.55059e-311
-1.61879e-310
-1.83512e-310
-2.2803e-310
-2.60616e-310
-2.31154e-310
-2.29821e-310
-2.25082e-310
-1.53669e-310
-2.05808e-310
-1.93666e-310
-5.17086e-311
-1.29595e-310
-3.04714e-311
1.44927e-310
2.70564e-310
2.56076e-310
3.5964e-310
6.19468e-310
5.80905e-310
5.0177e-310
3.75403e-310
5.55427e-311
-2.78544e-311
5.34832e-311
6.57284e-311
-5.70924e-311
3.19397e-311
5.16649e-311
1.60057e-311
-2.79745e-311
4.4924e-311
-1.47832e-311
-2.61364e-310
-7.33284e-311
1.13877e-310
3.72334e-311
6.26351e-311
1.3953e-310
1.5185e-310
1.06755e-310
1.08521e-310
1.72e-310
5.61946e-311
1.79012e-311
-1.50493e-310
-4.77598e-311
3.58904e-311
7.23429e-311
1.46994e-310
-1.48968e-310
-2.58763e-310
-1.62922e-310
1.87466e-311
2.48282e-311
-6.62669e-311
-1.11339e-310
-2.06072e-310
-1.58804e-310
4.86149e-311
2.86708e-310
1.91389e-310
1.18822e-310
-3.59902e-311
-3.00479e-311
1.87694e-310
2.067e-310
-4.38711e-311
-1.96341e-310
-7.01698e-311
-5.75175e-311
3.68064e-311
-4.4168e-311
-1.49241e-310
-2.0169e-310
-6.21272e-311
3.63789e-310
4.62638e-310
4.21088e-310
4.01193e-310
3.12669e-310
8.75652e-310
5.63995e-310
3.26448e-310
-9.68128e-312
-1.65364e-310
-2.87936e-310
-3.17543e-310
-4.43886e-310
-5.55333e-310
-4.67845e-310
-2.47643e-310
-9.28944e-311
1.15094e-310
1.62942e-310
8.32387e-311
1.62181e-310
4.35234e-310
5.80658e-310
4.58837e-310
3.59739e-310
3.21858e-310
8.73883e-311
-2.15029e-311
-6.26967e-311
-1.51225e-310
-1.01281e-310
5.44065e-311
-2.19345e-311
-8.10143e-311
8.29009e-311
1.17274e-310
-1.12472e-310
-6.12861e-311
1.94335e-311
9.15635e-311
1.16446e-310
9.74717e-311
4.64004e-311
1.24264e-310
1.0236e-311
8.80575e-311
1.55669e-313
4.69161e-311
-2.46979e-311
-1.26951e-310
-8.10951e-311
-7.97267e-311
-8.42487e-311
-2.19013e-310
-2.82609e-310
-2.86612e-310
-3.10009e-311
2.40685e-310
1.18545e-310
3.55936e-311
9.16331e-311
-4.74615e-311
-7.3161e-311
1.94614e-310
2.43439e-310
4.78042e-311
-2.22359e-310
-3.05344e-310
-1.27113e-310
1.4473e-310
2.06739e-310
6.78428e-311
-8.91224e-311
-1.25237e-310
-1.26647e-310
-2.00202e-310
-2.14935e-310
-2.39709e-310
-5.96624e-311
-6.68771e-311
9.19055e-311
2.91991e-310
2.491e-310
1.36385e-310
8.33287e-311
1.11193e-309
1.02268e-309
6.04735e-310
3.36299e-310
1.33731e-311
-1.32091e-310
-3.07336e-310
-5.18374e-310
-4.24926e-310
-4.18211e-310
-3.82676e-310
-1.38386e-310
1.06746e-310
1.35935e-311
-1.14467e-310
3.914e-311
3.17501e-310
3.8521e-310
4.05921e-310
3.7386e-310
3.35649e-310
2.72305e-310
7.39798e-313
-1.94005e-310
-1.68116e-310
1.39673e-310
8.92068e-311
-8.74147e-311
-4.20699e-311
9.80894e-311
1.00879e-311
-9.89552e-311
4.34464e-311
-1.53632e-311
9.9302e-311
7.62493e-311
-4.34364e-311
-9.25512e-311
-8.52809e-311
-7.59866e-311
-1.39254e-310
-2.64169e-310
-1.45129e-310
-7.71405e-311
-7.37096e-311
-1.59831e-310
-2.22345e-310
-2.09124e-310
-4.62618e-310
-3.6021e-310
-2.97623e-310
-1.91656e-310
2.17512e-311
1.71358e-310
6.12897e-311
-8.74483e-312
3.0155e-311
-1.38551e-310
-1.57501e-310
-1.07813e-310
-7.84286e-312
-1.6096e-310
-1.63678e-310
6.19256e-311
2.68825e-310
1.93763e-310
8.1125e-311
-2.05633e-310
-3.31918e-310
-3.47143e-310
-3.33014e-310
-2.26569e-310
-1.65012e-310
-9.47596e-311
-2.08925e-310
-2.25043e-310
-2.86616e-310
-2.36772e-310
-2.52935e-310
-2.1737e-310
6.32348e-310
5.29701e-310
2.97639e-310
-6.60954e-312
-1.6226e-310
-3.03091e-310
-4.71839e-310
-6.06507e-310
-2.57e-310
-2.30295e-310
-2.50553e-310
-3.41121e-310
-4.34514e-310
-3.75119e-310
-2.70325e-310
-1.5908e-310
3.18614e-311
2.25689e-310
3.46768e-310
3.87404e-310
3.38063e-310
3.13766e-310
2.13724e-310
1.674e-310
1.27068e-310
2.28444e-310
7.0112e-311
1.61515e-311
1.4459e-311
-1.04396e-310
-1.82318e-310
-1.74575e-310
-1.04164e-310
-1.0578e-310
7.18992e-311
1.17156e-312
-6.56899e-311
1.24458e-311
6.24659e-312
2.04073e-311
-2.00624e-310
-2.47583e-310
-1.98052e-310
-9.6808e-311
3.32567e-311
-2.36966e-312
2.34692e-311
-4.87451e-311
-2.43441e-310
-2.815e-310
-2.93774e-310
-2.62361e-310
-2.31515e-310
1.76421e-311
1.39419e-310
1.42219e-312
2.64737e-311
-8.88131e-311
-2.15164e-310
-2.76412e-310
-2.375e-310
-1.21927e-310
1.70964e-310
2.59943e-310
2.76582e-310
1.79817e-310
-2.44837e-311
-2.04255e-310
-3.81589e-310
-4.95002e-310
-3.23815e-310
-1.428e-310
1.24766e-310
1.77482e-310
2.15701e-310
2.95467e-310
2.82997e-310
3.79481e-310
5.12972e-310
4.1144e-310
5.04606e-310
2.62903e-310
1.2173e-310
-1.66782e-311
6.75494e-311
-2.93296e-311
-1.51105e-310
-3.05098e-310
-3.87669e-310
-3.27442e-310
-3.1512e-310
-4.28956e-310
-5.97421e-310
-4.28575e-310
-1.88284e-310
-1.73273e-310
-1.30474e-310
2.69971e-310
3.94054e-310
2.63772e-310
1.67228e-310
2.37382e-310
4.10508e-310
3.14253e-310
2.65678e-310
1.67789e-310
5.43406e-311
3.40027e-311
2.57309e-311
-2.09086e-310
-3.16262e-310
-3.81083e-310
-2.41254e-310
3.19515e-311
4.88643e-311
1.20262e-310
1.25444e-310
1.95808e-311
2.68729e-311
1.64251e-311
-9.89842e-311
4.03046e-311
1.42627e-311
-5.17696e-312
9.31052e-311
1.3431e-310
-1.47287e-311
-1.11427e-310
-1.33873e-310
-2.26296e-310
-2.61225e-310
-1.09235e-310
-7.31436e-311
-3.52838e-311
1.49247e-310
9.50179e-311
-7.19287e-311
-1.34391e-310
-1.50419e-310
-2.16726e-310
-2.57014e-310
-6.41456e-311
1.58221e-310
1.43478e-310
1.58784e-310
6.08427e-311
-2.87754e-310
-2.76392e-310
-4.45499e-310
-4.40067e-310
-3.84641e-310
-2.57752e-310
-4.14387e-311
4.56176e-310
8.6935e-310
1.08139e-309
1.22509e-309
1.30755e-309
1.01083e-309
7.92243e-310
1.63003e-310
1.93425e-310
1.81927e-310
3.98669e-311
7.82531e-311
8.91283e-311
-3.29412e-311
-1.78614e-310
-3.20028e-310
-4.26331e-310
-5.91736e-310
-4.40894e-310
-3.3026e-310
-3.26555e-310
-2.77234e-310
-2.16046e-310
-7.35402e-311
3.94806e-310
4.31954e-310
1.24014e-310
1.63732e-310
1.75652e-310
2.36369e-310
8.61661e-311
1.67629e-310
1.1933e-310
8.97652e-311
7.20576e-311
-1.25907e-310
-1.70029e-310
-3.01536e-310
-4.0643e-310
-2.9438e-310
5.56265e-311
1.16012e-310
1.62327e-310
1.01202e-310
-1.37636e-310
-1.48941e-310
-1.69612e-312
1.51819e-310
2.62358e-310
1.38652e-310
-2.1442e-311
-2.04875e-310
-1.1301e-310
-3.66487e-310
-3.41203e-310
-1.56116e-310
-1.58956e-310
-1.79841e-310
-5.0988e-311
-1.1584e-310
3.50501e-311
6.84316e-311
-2.9256e-311
-5.95003e-311
-1.0775e-310
-1.39669e-310
-1.98077e-310
-2.509e-311
1.72857e-310
9.20531e-311
-2.16323e-311
4.20965e-311
-2.37243e-310
-3.5487e-310
-3.94549e-310
-2.96104e-310
-1.6762e-310
-2.76094e-310
-1.87333e-310
3.9715e-311
2.79522e-310
6.40124e-310
8.23002e-310
9.2109e-310
8.68664e-310
6.53051e-310
4.79058e-310
5.58142e-311
3.44812e-310
3.08399e-310
1.46315e-310
3.29782e-311
-1.08384e-310
-2.12977e-310
-3.06075e-310
-3.8055e-310
-6.20606e-310
-5.37823e-310
-4.16351e-310
-2.81572e-310
-3.88388e-310
-4.52983e-310
-3.77819e-310
-9.93248e-311
3.40222e-310
2.72296e-310
8.48378e-311
2.17082e-310
6.96344e-311
-4.39653e-311
-4.32883e-311
1.40653e-311
4.05795e-311
2.39015e-310
2.16975e-310
-6.86133e-311
-1.05778e-310
-2.96195e-310
-2.14658e-310
-3.04199e-310
-2.69117e-310
8.32168e-311
-4.63374e-311
-2.34859e-312
9.01306e-311
2.12508e-311
8.04633e-311
1.42174e-310
1.94687e-310
1.64887e-310
5.24082e-311
-2.54512e-310
-3.59951e-310
-3.86874e-310
-2.92066e-310
-7.61105e-311
-1.36402e-310
-2.1396e-310
-2.61953e-310
-1.83879e-310
-9.26778e-311
-6.6424e-311
-1.45506e-310
2.16829e-311
4.79327e-312
6.44683e-311
-4.6347e-311
1.66691e-310
3.05013e-310
1.24466e-310
1.03519e-311
-7.84136e-311
-3.44844e-310
-2.79566e-310
-2.9985e-310
-1.99069e-310
-5.71035e-311
-8.04703e-311
8.22022e-312
1.42056e-310
2.31955e-310
3.34255e-310
4.31382e-310
2.20216e-310
-1.21934e-310
-1.75026e-310
-2.27835e-310
2.79831e-310
3.36771e-310
2.72055e-310
3.90946e-310
3.47433e-310
2.7965e-310
-6.40521e-311
-2.8762e-310
-3.68815e-310
-1.74828e-310
-8.72934e-311
-1.17104e-310
-2.25668e-310
-2.12546e-310
-2.59609e-310
-3.19851e-310
-2.18842e-310
-2.41796e-311
-7.72555e-311
-4.68293e-311
6.38035e-313
5.76796e-311
3.45112e-311
6.03304e-311
7.79351e-311
3.07745e-311
1.47868e-310
1.75921e-310
2.00024e-310
7.88343e-311
-1.78177e-310
-2.04196e-310
-2.86104e-310
-3.1788e-310
-5.17294e-311
2.85027e-311
3.43475e-311
1.54751e-310
3.22172e-310
1.28229e-310
9.30595e-311
1.53177e-310
8.89051e-311
2.88724e-311
-1.31833e-310
-2.23014e-310
-1.56435e-310
-2.11007e-310
-1.17295e-310
-2.74894e-311
-2.18792e-310
-1.97053e-310
-5.11065e-311
-6.77711e-311
-4.05523e-311
-4.45494e-311
1.00899e-311
1.39701e-310
2.77626e-310
2.19562e-310
1.64317e-310
1.37851e-310
-4.40795e-311
-3.11405e-311
-7.01036e-311
-1.10742e-310
-1.84482e-310
-3.07886e-310
-2.70616e-310
-2.08139e-310
5.21888e-312
1.94372e-310
2.63373e-310
2.68991e-310
3.51868e-310
2.40537e-310
-2.02484e-310
-4.47181e-310
-5.15766e-310
-5.46044e-310
2.17193e-310
1.89985e-311
1.29821e-311
1.85038e-310
2.34036e-310
3.80773e-310
8.68536e-311
-1.33431e-310
-3.85899e-310
-9.91271e-311
1.10074e-310
9.44071e-312
-1.71001e-310
-4.18322e-311
-8.93126e-311
-1.72883e-310
-2.82602e-310
-1.83247e-310
1.01667e-312
-1.52396e-311
-1.32198e-310
-2.2152e-311
1.31413e-310
1.12193e-310
1.59347e-310
1.77685e-310
1.41785e-311
-3.96926e-311
1.32685e-310
1.09628e-310
-2.58181e-311
-2.03984e-310
-7.63879e-311
-5.73831e-311
-7.79411e-311
-6.63455e-311
-6.69077e-311
3.33117e-313
1.37328e-310
6.72704e-311
1.19712e-310
1.73137e-313
-3.68816e-311
-1.82716e-310
-1.37129e-310
-6.32695e-311
2.37735e-311
-1.47273e-310
-1.39541e-310
-3.85856e-311
-6.97753e-311
-5.46404e-311
-4.73916e-311
1.76855e-311
7.93409e-311
2.70733e-311
-6.47296e-311
1.17646e-310
2.68519e-310
2.71624e-310
4.81388e-311
-1.38839e-310
-1.2263e-310
-9.05638e-311
-5.28672e-311
-1.13115e-310
-1.14735e-310
-1.09542e-310
-2.08022e-310
-1.17641e-310
9.06316e-311
2.34853e-310
2.81877e-310
1.86007e-310
5.01139e-311
-1.52676e-311
-1.69932e-310
-3.81988e-310
-4.4588e-310
-3.69882e-310
2.49306e-310
-1.8576e-311
-2.10296e-310
-5.87046e-311
2.45171e-310
4.43926e-310
3.55301e-310
2.21328e-310
-9.76222e-311
-1.23433e-310
-1.22363e-310
-1.16758e-310
-2.9143e-310
-8.34756e-311
-4.56103e-311
-1.18499e-311
1.09551e-311
1.55702e-311
1.46039e-310
-2.35598e-311
2.06433e-311
-3.17295e-311
9.73634e-311
5.16547e-311
1.04069e-310
2.39998e-310
1.61062e-310
2.40564e-311
8.49249e-311
7.69346e-311
-4.39534e-311
-1.40287e-310
-1.39742e-310
-8.03029e-311
-3.24865e-311
-2.6881e-311
-9.37264e-311
-1.91418e-310
-9.07013e-311
2.06255e-311
-2.76314e-311
5.94921e-311
-4.1585e-311
-9.98957e-311
3.55489e-311
1.22192e-310
-6.32549e-311
-2.15756e-310
-2.20137e-310
-1.94507e-310
-1.04928e-310
-5.80515e-311
1.65126e-311
9.95652e-311
1.86383e-310
1.45722e-311
-1.90338e-311
2.0727e-310
2.16813e-310
1.1688e-310
-1.20848e-311
-1.14136e-310
-1.19224e-310
-3.88376e-311
3.08569e-311
-1.49636e-311
-1.29445e-310
-1.03075e-310
4.31188e-311
1.62459e-310
1.76754e-310
1.7673e-310
4.49035e-311
-7.05836e-311
-2.64928e-310
-4.15699e-310
-3.58632e-310
-4.52136e-310
-3.56777e-310
-5.20718e-310
7.69551e-310
3.59317e-310
3.00319e-310
2.2287e-310
2.1661e-310
3.8624e-310
4.8823e-310
5.38185e-310
3.46809e-310
4.19901e-311
-1.54935e-310
-1.38466e-310
-2.40595e-311
-1.33693e-310
-1.12509e-310
-9.16497e-311
1.30616e-312
-2.84691e-311
-1.07792e-310
-1.70572e-311
8.52183e-311
3.00443e-311
9.95125e-311
1.43479e-310
1.54072e-310
2.29076e-310
2.41547e-310
1.79693e-310
2.11477e-310
6.56655e-311
-1.05917e-310
-2.37013e-310
-2.29546e-310
-9.87726e-311
4.38152e-311
1.62014e-310
-4.6141e-311
-1.74856e-310
-1.05413e-310
-1.55565e-310
-6.84281e-311
3.94662e-311
8.26285e-311
1.23482e-310
9.04232e-311
8.00153e-311
-2.48688e-310
-3.73216e-310
-2.42125e-310
-1.89862e-310
-1.77964e-310
-2.2222e-310
-1.26289e-310
-7.87333e-311
6.16132e-311
-1.22802e-310
-1.31437e-310
1.69331e-312
-1.8891e-311
-1.74767e-310
-8.23935e-311
7.52891e-311
-1.77625e-311
6.33371e-311
6.80827e-311
2.24985e-310
-6.38363e-311
-2.38479e-310
-7.80919e-311
-8.49909e-311
-3.13881e-311
-2.78761e-311
-1.38486e-310
-2.67526e-310
-4.0147e-310
-5.15055e-310
-5.91799e-310
-6.99652e-310
-8.347e-310
-1.08679e-309
7.99357e-310
9.30648e-310
7.12342e-310
6.31645e-310
4.18917e-310
1.18845e-310
1.53006e-310
3.50864e-310
2.77144e-310
1.35721e-310
8.58895e-311
1.07785e-310
1.37108e-310
-2.15855e-312
-2.04151e-310
-2.47212e-310
-2.3612e-310
-1.93182e-310
-1.48737e-310
-5.74872e-311
5.19112e-311
9.1744e-312
1.11127e-310
1.8903e-311
1.02208e-310
1.16516e-310
2.11646e-310
3.00872e-310
3.10208e-310
2.54053e-310
5.15656e-311
-1.30127e-310
-1.28095e-310
-1.6324e-310
9.51524e-311
2.97658e-311
-8.43518e-312
8.70902e-311
2.12057e-311
-9.59855e-311
4.29636e-311
4.73324e-312
4.78508e-311
1.41351e-310
1.53233e-311
-7.37824e-311
-2.11194e-310
-2.53973e-310
-2.31359e-310
-1.6056e-310
-3.7185e-310
-4.72116e-310
-4.36766e-310
-1.05898e-310
-7.75926e-311
-1.43648e-310
-1.55165e-310
-1.05044e-310
-7.02098e-311
-5.08678e-311
-2.62389e-310
-1.93388e-310
-1.09386e-310
-4.26275e-311
1.32474e-310
2.65772e-310
1.72504e-310
4.14784e-311
-1.87462e-310
-3.10201e-310
-1.42489e-310
2.42665e-311
2.09998e-311
-1.58223e-310
-5.15493e-310
-5.08105e-310
-3.4411e-310
-4.27297e-310
-7.22791e-310
-9.46985e-310
1.86711e-310
5.09701e-310
6.51282e-310
5.94066e-310
5.79485e-310
2.64492e-310
9.45913e-312
-8.8254e-312
1.48554e-310
2.18748e-310
2.07347e-310
1.86655e-310
1.41914e-310
1.66962e-310
-1.26455e-310
-2.74365e-310
-3.08994e-310
-2.30475e-310
-1.76485e-310
-9.43032e-311
6.78756e-311
3.07605e-311
1.82255e-310
-6.50524e-311
4.72142e-311
1.3319e-310
1.38657e-310
2.72187e-310
2.40446e-310
3.05219e-310
2.55207e-311
-8.38354e-311
-2.78039e-310
-1.61981e-310
8.80067e-311
3.75638e-311
7.7637e-311
1.13492e-310
7.01541e-311
5.3621e-311
1.22257e-310
-7.93937e-312
2.8947e-311
1.43839e-310
-4.53621e-312
-1.11583e-310
5.13751e-312
-2.03006e-311
-1.79883e-310
-2.61578e-310
-5.09957e-310
-3.93325e-310
-2.59487e-310
-5.23313e-311
-2.42807e-310
-1.12345e-310
-1.96772e-310
-2.19318e-310
7.74639e-312
-5.25008e-311
-1.65976e-310
-2.94302e-310
-2.60261e-310
-2.52107e-310
-1.51732e-310
-1.0243e-310
1.21673e-310
1.57428e-310
-6.30905e-311
-8.51249e-311
1.43051e-310
5.2169e-311
-1.58519e-310
-3.58929e-310
-4.43856e-310
-3.50846e-310
-9.04457e-311
-2.03293e-310
-5.12665e-310
-8.0568e-310
4.0542e-310
2.79065e-310
5.63658e-310
6.96085e-310
7.38609e-310
7.25402e-310
3.19986e-310
-5.26075e-311
-7.74716e-311
-8.05296e-311
7.49234e-311
1.18573e-310
1.03809e-311
9.51469e-311
1.01621e-310
-1.75329e-310
-2.70416e-310
-1.69102e-310
-2.20049e-310
-7.7799e-311
-3.66666e-311
8.18382e-311
2.93435e-310
3.19663e-310
3.7494e-310
2.1067e-310
1.20906e-310
5.81102e-311
7.74362e-311
6.93326e-311
-6.29666e-311
-2.02335e-310
-2.80953e-310
-1.94595e-310
-4.14193e-311
1.08992e-310
2.0824e-311
-6.23899e-311
4.72079e-312
-2.51279e-313
4.7168e-311
-1.04567e-311
6.19485e-311
1.13967e-310
2.27329e-312
3.7936e-312
-2.10098e-311
-5.24247e-311
-3.3118e-310
-4.01169e-310
-4.34e-310
-1.2279e-310
-1.24691e-310
-4.24478e-311
-1.51394e-310
-1.85718e-310
-2.55617e-310
-2.84691e-310
-7.28549e-312
-5.02008e-311
-9.81079e-311
-1.07826e-310
-2.14319e-310
-2.49542e-310
-3.95265e-310
-2.19596e-310
-2.6343e-311
-4.46994e-311
-9.50533e-311
-1.07987e-310
-5.82716e-311
-7.13834e-311
-1.976e-310
-3.23323e-310
-2.43645e-310
-1.1236e-311
-6.73827e-311
-3.10368e-310
-5.4428e-310
-4.43079e-310
9.43795e-310
9.41807e-310
8.28893e-310
9.13913e-310
8.17041e-310
8.21562e-310
2.90885e-310
-1.48571e-311
-2.65048e-310
-4.68444e-310
-2.22972e-310
-3.64665e-310
-1.92128e-310
-7.31924e-311
1.51755e-310
4.62723e-311
4.05462e-311
-1.26163e-310
-1.12397e-310
-8.50418e-311
-5.39846e-311
1.16941e-310
2.11978e-310
2.7926e-310
2.40522e-310
-1.33326e-311
5.50066e-313
5.88248e-311
1.90884e-310
1.7943e-310
1.19584e-310
-4.17167e-311
-7.14033e-311
-2.14906e-310
-1.38573e-310
-1.16729e-312
-2.54665e-311
-8.12611e-311
-1.17234e-310
-1.26911e-310
-1.04657e-310
2.47152e-311
-5.4061e-311
5.89696e-311
-3.49519e-311
4.45778e-311
-7.95839e-312
-8.62983e-311
-4.01274e-310
-4.32735e-310
-3.93824e-310
-2.97853e-310
-2.19463e-310
-2.48847e-310
-7.61577e-311
-1.46749e-310
-1.4939e-310
-1.51e-310
1.15039e-312
7.59763e-312
-6.33009e-311
9.61069e-312
-2.37207e-310
-3.47195e-310
-4.17824e-310
-3.69793e-310
-3.37691e-310
-1.7764e-310
-2.45875e-312
-1.02398e-310
-1.98214e-310
-2.55222e-311
-1.05311e-310
-1.44646e-310
1.55731e-310
2.98692e-310
5.37214e-311
-2.35769e-311
-3.31373e-310
-5.64898e-310
8.97012e-310
8.90528e-310
1.1401e-309
1.09564e-309
1.14054e-309
8.75689e-310
5.16881e-310
3.48852e-310
4.57894e-311
-1.81042e-310
-4.55988e-310
-4.65968e-310
-3.59246e-310
-1.16336e-310
7.94046e-311
2.11914e-310
2.13383e-310
-1.22039e-310
-7.42261e-312
-3.20278e-311
6.58313e-311
4.09968e-311
1.33359e-310
-4.08507e-312
-1.38541e-310