/*--------------------------------*- C++ -*----------------------------------*\
  =========                 |
  \\      /  F ield         | OpenFOAM: The Open Source CFD Toolbox
   \\    /   O peration     | Website:  https://openfoam.org
    \\  /    A nd           | Version:  11
     \\/     M anipulation  |
\*---------------------------------------------------------------------------*/
FoamFile
{
    format      ascii;
    class       volScalarField;
    location    "616";
    object      p;
}
// * * * * * * * * * * * * * * * * * * * * * * * * * * * * * * * * * * * * * //

dimensions      [0 2 -2 0 0 0 0];

internalField   nonuniform List<scalar> 
427520
(
0.319169
0.316088
0.313761
0.312319
0.311323
0.310566
0.309976
0.309514
0.309148
0.308855
0.308618
0.308423
0.308263
0.308128
0.308014
0.307918
0.307834
0.307762
0.307698
0.307642
0.307593
0.307549
0.30751
0.307475
0.307443
0.307415
0.307389
0.307367
0.307346
0.307328
0.307312
0.307298
0.307286
0.307275
0.307266
0.307259
0.307253
0.307248
0.307246
0.307244
0.307244
0.307246
0.307248
0.307253
0.307259
0.307266
0.307275
0.307286
0.307298
0.307312
0.307328
0.307346
0.307367
0.307389
0.307415
0.307443
0.307475
0.30751
0.307549
0.307593
0.307642
0.307698
0.307762
0.307834
0.307918
0.308014
0.308128
0.308263
0.308423
0.308618
0.308855
0.309148
0.309514
0.309976
0.310566
0.311323
0.312319
0.313761
0.316088
0.319169
0.310413
0.310447
0.310319
0.310087
0.309823
0.309559
0.309309
0.30908
0.308874
0.308691
0.308528
0.308385
0.308258
0.308146
0.308048
0.30796
0.307882
0.307813
0.307751
0.307696
0.307646
0.307602
0.307562
0.307526
0.307493
0.307464
0.307437
0.307414
0.307392
0.307374
0.307357
0.307342
0.307329
0.307318
0.307309
0.307301
0.307295
0.30729
0.307287
0.307286
0.307286
0.307287
0.30729
0.307295
0.307301
0.307309
0.307318
0.307329
0.307342
0.307357
0.307374
0.307392
0.307414
0.307437
0.307464
0.307493
0.307526
0.307562
0.307602
0.307646
0.307696
0.307751
0.307813
0.307882
0.30796
0.308048
0.308146
0.308258
0.308385
0.308528
0.308691
0.308874
0.30908
0.309309
0.309559
0.309823
0.310087
0.310319
0.310447
0.310413
0.308902
0.30909
0.309222
0.309225
0.30915
0.30904
0.308914
0.308783
0.308654
0.308529
0.308412
0.308303
0.308203
0.308111
0.308028
0.307952
0.307883
0.307821
0.307764
0.307713
0.307666
0.307624
0.307586
0.307551
0.30752
0.307491
0.307465
0.307442
0.307421
0.307403
0.307386
0.307371
0.307358
0.307347
0.307338
0.30733
0.307324
0.30732
0.307317
0.307315
0.307315
0.307317
0.30732
0.307324
0.30733
0.307338
0.307347
0.307358
0.307371
0.307386
0.307403
0.307421
0.307442
0.307465
0.307491
0.30752
0.307551
0.307586
0.307624
0.307666
0.307713
0.307764
0.307821
0.307883
0.307952
0.308028
0.308111
0.308203
0.308303
0.308412
0.308529
0.308654
0.308783
0.308914
0.30904
0.30915
0.309225
0.309222
0.30909
0.308902
0.308198
0.308343
0.308466
0.308523
0.308531
0.30851
0.308468
0.308413
0.308349
0.308281
0.308211
0.308142
0.308075
0.308011
0.307949
0.307891
0.307837
0.307787
0.30774
0.307697
0.307657
0.30762
0.307586
0.307555
0.307526
0.3075
0.307476
0.307455
0.307435
0.307418
0.307402
0.307388
0.307376
0.307366
0.307357
0.307349
0.307344
0.307339
0.307336
0.307335
0.307335
0.307336
0.307339
0.307344
0.307349
0.307357
0.307366
0.307376
0.307388
0.307402
0.307418
0.307435
0.307455
0.307476
0.3075
0.307526
0.307555
0.307586
0.30762
0.307657
0.307697
0.30774
0.307787
0.307837
0.307891
0.307949
0.308011
0.308075
0.308142
0.308211
0.308281
0.308349
0.308413
0.308468
0.30851
0.308531
0.308523
0.308466
0.308343
0.308198
0.307861
0.307962
0.308057
0.308118
0.30815
0.30816
0.308153
0.308134
0.308106
0.30807
0.30803
0.307988
0.307944
0.3079
0.307856
0.307814
0.307773
0.307734
0.307697
0.307662
0.307629
0.307598
0.307569
0.307542
0.307518
0.307495
0.307474
0.307454
0.307437
0.307421
0.307407
0.307394
0.307383
0.307374
0.307366
0.307359
0.307353
0.307349
0.307347
0.307345
0.307345
0.307347
0.307349
0.307353
0.307359
0.307366
0.307374
0.307383
0.307394
0.307407
0.307421
0.307437
0.307454
0.307474
0.307495
0.307518
0.307542
0.307569
0.307598
0.307629
0.307662
0.307697
0.307734
0.307773
0.307814
0.307856
0.3079
0.307944
0.307988
0.30803
0.30807
0.308106
0.308134
0.308153
0.30816
0.30815
0.308118
0.308057
0.307962
0.307861
0.307658
0.307728
0.307798
0.307849
0.307883
0.307903
0.307912
0.307911
0.307902
0.307886
0.307865
0.307841
0.307814
0.307786
0.307757
0.307727
0.307698
0.307669
0.307641
0.307614
0.307588
0.307563
0.30754
0.307517
0.307497
0.307478
0.30746
0.307443
0.307428
0.307414
0.307402
0.307391
0.307381
0.307373
0.307365
0.307359
0.307354
0.307351
0.307348
0.307347
0.307347
0.307348
0.307351
0.307354
0.307359
0.307365
0.307373
0.307381
0.307391
0.307402
0.307414
0.307428
0.307443
0.30746
0.307478
0.307497
0.307517
0.30754
0.307563
0.307588
0.307614
0.307641
0.307669
0.307698
0.307727
0.307757
0.307786
0.307814
0.307841
0.307865
0.307886
0.307902
0.307911
0.307912
0.307903
0.307883
0.307849
0.307798
0.307728
0.307658
0.307525
0.307576
0.307627
0.307668
0.307698
0.307719
0.307733
0.30774
0.30774
0.307735
0.307726
0.307713
0.307698
0.30768
0.307662
0.307642
0.307621
0.3076
0.30758
0.307559
0.30754
0.30752
0.307502
0.307484
0.307468
0.307452
0.307437
0.307423
0.307411
0.307399
0.307389
0.307379
0.307371
0.307363
0.307357
0.307352
0.307348
0.307344
0.307342
0.307341
0.307341
0.307342
0.307344
0.307348
0.307352
0.307357
0.307363
0.307371
0.307379
0.307389
0.307399
0.307411
0.307423
0.307437
0.307452
0.307468
0.307484
0.307502
0.30752
0.30754
0.307559
0.30758
0.3076
0.307621
0.307642
0.307662
0.30768
0.307698
0.307713
0.307726
0.307735
0.30774
0.30774
0.307733
0.307719
0.307698
0.307668
0.307627
0.307576
0.307525
0.30743
0.307467
0.307505
0.307537
0.307562
0.307582
0.307596
0.307606
0.307611
0.307611
0.307609
0.307603
0.307595
0.307585
0.307573
0.30756
0.307546
0.307532
0.307517
0.307503
0.307488
0.307473
0.307459
0.307445
0.307432
0.30742
0.307408
0.307397
0.307387
0.307377
0.307368
0.30736
0.307353
0.307347
0.307342
0.307338
0.307334
0.307331
0.30733
0.307329
0.307329
0.30733
0.307331
0.307334
0.307338
0.307342
0.307347
0.307353
0.30736
0.307368
0.307377
0.307387
0.307397
0.307408
0.30742
0.307432
0.307445
0.307459
0.307473
0.307488
0.307503
0.307517
0.307532
0.307546
0.30756
0.307573
0.307585
0.307595
0.307603
0.307609
0.307611
0.307611
0.307606
0.307596
0.307582
0.307562
0.307537
0.307505
0.307467
0.30743
0.307357
0.307385
0.307414
0.307439
0.307459
0.307476
0.30749
0.307499
0.307506
0.30751
0.30751
0.307509
0.307505
0.3075
0.307493
0.307485
0.307476
0.307466
0.307456
0.307446
0.307435
0.307424
0.307414
0.307403
0.307393
0.307384
0.307374
0.307366
0.307357
0.30735
0.307343
0.307336
0.307331
0.307326
0.307321
0.307318
0.307315
0.307313
0.307311
0.30731
0.30731
0.307311
0.307313
0.307315
0.307318
0.307321
0.307326
0.307331
0.307336
0.307343
0.30735
0.307357
0.307366
0.307374
0.307384
0.307393
0.307403
0.307414
0.307424
0.307435
0.307446
0.307456
0.307466
0.307476
0.307485
0.307493
0.3075
0.307505
0.307509
0.30751
0.30751
0.307506
0.307499
0.30749
0.307476
0.307459
0.307439
0.307414
0.307385
0.307357
0.307299
0.30732
0.307342
0.307361
0.307378
0.307392
0.307404
0.307413
0.30742
0.307425
0.307427
0.307428
0.307427
0.307425
0.307421
0.307416
0.307411
0.307405
0.307398
0.30739
0.307383
0.307375
0.307368
0.30736
0.307352
0.307345
0.307338
0.307331
0.307325
0.307319
0.307313
0.307308
0.307304
0.3073
0.307296
0.307293
0.307291
0.307289
0.307288
0.307287
0.307287
0.307288
0.307289
0.307291
0.307293
0.307296
0.3073
0.307304
0.307308
0.307313
0.307319
0.307325
0.307331
0.307338
0.307345
0.307352
0.30736
0.307368
0.307375
0.307383
0.30739
0.307398
0.307405
0.307411
0.307416
0.307421
0.307425
0.307427
0.307428
0.307427
0.307425
0.30742
0.307413
0.307404
0.307392
0.307378
0.307361
0.307342
0.30732
0.307299
0.307249
0.307265
0.307283
0.307298
0.307311
0.307323
0.307333
0.307341
0.307347
0.307352
0.307356
0.307358
0.307358
0.307358
0.307356
0.307354
0.30735
0.307347
0.307342
0.307337
0.307332
0.307327
0.307321
0.307316
0.30731
0.307305
0.307299
0.307294
0.307289
0.307285
0.307281
0.307277
0.307273
0.30727
0.307267
0.307265
0.307263
0.307262
0.307261
0.30726
0.30726
0.307261
0.307262
0.307263
0.307265
0.307267
0.30727
0.307273
0.307277
0.307281
0.307285
0.307289
0.307294
0.307299
0.307305
0.30731
0.307316
0.307321
0.307327
0.307332
0.307337
0.307342
0.307347
0.30735
0.307354
0.307356
0.307358
0.307358
0.307358
0.307356
0.307352
0.307347
0.307341
0.307333
0.307323
0.307311
0.307298
0.307283
0.307265
0.307249
0.307206
0.307218
0.307231
0.307243
0.307254
0.307263
0.307272
0.307279
0.307285
0.307289
0.307293
0.307295
0.307297
0.307297
0.307297
0.307296
0.307295
0.307292
0.30729
0.307287
0.307283
0.307279
0.307276
0.307272
0.307268
0.307264
0.30726
0.307256
0.307253
0.307249
0.307246
0.307243
0.30724
0.307238
0.307236
0.307234
0.307233
0.307231
0.307231
0.30723
0.30723
0.307231
0.307231
0.307233
0.307234
0.307236
0.307238
0.30724
0.307243
0.307246
0.307249
0.307253
0.307256
0.30726
0.307264
0.307268
0.307272
0.307276
0.307279
0.307283
0.307287
0.30729
0.307292
0.307295
0.307296
0.307297
0.307297
0.307297
0.307295
0.307293
0.307289
0.307285
0.307279
0.307272
0.307263
0.307254
0.307243
0.307231
0.307218
0.307206
0.307166
0.307176
0.307186
0.307195
0.307204
0.307211
0.307218
0.307224
0.307229
0.307234
0.307237
0.30724
0.307241
0.307243
0.307243
0.307243
0.307242
0.307241
0.30724
0.307238
0.307236
0.307233
0.307231
0.307228
0.307225
0.307223
0.30722
0.307217
0.307215
0.307212
0.30721
0.307207
0.307205
0.307204
0.307202
0.307201
0.3072
0.307199
0.307198
0.307198
0.307198
0.307198
0.307199
0.3072
0.307201
0.307202
0.307204
0.307205
0.307207
0.30721
0.307212
0.307215
0.307217
0.30722
0.307223
0.307225
0.307228
0.307231
0.307233
0.307236
0.307238
0.30724
0.307241
0.307242
0.307243
0.307243
0.307243
0.307241
0.30724
0.307237
0.307234
0.307229
0.307224
0.307218
0.307211
0.307204
0.307195
0.307186
0.307176
0.307166
0.307129
0.307136
0.307144
0.307151
0.307158
0.307164
0.30717
0.307175
0.307179
0.307183
0.307186
0.307189
0.307191
0.307192
0.307193
0.307194
0.307194
0.307193
0.307192
0.307191
0.30719
0.307189
0.307187
0.307185
0.307184
0.307182
0.30718
0.307178
0.307176
0.307174
0.307172
0.307171
0.307169
0.307168
0.307167
0.307166
0.307165
0.307165
0.307164
0.307164
0.307164
0.307164
0.307165
0.307165
0.307166
0.307167
0.307168
0.307169
0.307171
0.307172
0.307174
0.307176
0.307178
0.30718
0.307182
0.307184
0.307185
0.307187
0.307189
0.30719
0.307191
0.307192
0.307193
0.307194
0.307194
0.307193
0.307192
0.307191
0.307189
0.307186
0.307183
0.307179
0.307175
0.30717
0.307164
0.307158
0.307151
0.307144
0.307136
0.307129
0.307093
0.307099
0.307105
0.307111
0.307116
0.307121
0.307125
0.30713
0.307133
0.307136
0.307139
0.307142
0.307144
0.307145
0.307146
0.307147
0.307147
0.307147
0.307147
0.307147
0.307146
0.307145
0.307144
0.307143
0.307142
0.307141
0.30714
0.307138
0.307137
0.307136
0.307135
0.307134
0.307133
0.307132
0.307131
0.30713
0.307129
0.307129
0.307129
0.307129
0.307129
0.307129
0.307129
0.307129
0.30713
0.307131
0.307132
0.307133
0.307134
0.307135
0.307136
0.307137
0.307138
0.30714
0.307141
0.307142
0.307143
0.307144
0.307145
0.307146
0.307147
0.307147
0.307147
0.307147
0.307147
0.307146
0.307145
0.307144
0.307142
0.307139
0.307136
0.307133
0.30713
0.307125
0.307121
0.307116
0.307111
0.307105
0.307099
0.307093
0.307058
0.307062
0.307067
0.307072
0.307076
0.30708
0.307084
0.307087
0.30709
0.307093
0.307095
0.307097
0.307099
0.3071
0.307102
0.307103
0.307103
0.307104
0.307104
0.307104
0.307103
0.307103
0.307103
0.307102
0.307101
0.307101
0.3071
0.307099
0.307098
0.307097
0.307096
0.307096
0.307095
0.307094
0.307094
0.307093
0.307093
0.307093
0.307092
0.307092
0.307092
0.307092
0.307093
0.307093
0.307093
0.307094
0.307094
0.307095
0.307096
0.307096
0.307097
0.307098
0.307099
0.3071
0.307101
0.307101
0.307102
0.307103
0.307103
0.307103
0.307104
0.307104
0.307104
0.307103
0.307103
0.307102
0.3071
0.307099
0.307097
0.307095
0.307093
0.30709
0.307087
0.307084
0.30708
0.307076
0.307072
0.307067
0.307062
0.307058
0.307023
0.307027
0.307031
0.307034
0.307037
0.30704
0.307043
0.307046
0.307049
0.307051
0.307053
0.307055
0.307057
0.307058
0.307059
0.30706
0.307061
0.307061
0.307062
0.307062
0.307062
0.307062
0.307062
0.307061
0.307061
0.307061
0.30706
0.30706
0.307059
0.307059
0.307058
0.307058
0.307057
0.307057
0.307056
0.307056
0.307056
0.307056
0.307055
0.307055
0.307055
0.307055
0.307056
0.307056
0.307056
0.307056
0.307057
0.307057
0.307058
0.307058
0.307059
0.307059
0.30706
0.30706
0.307061
0.307061
0.307061
0.307062
0.307062
0.307062
0.307062
0.307062
0.307061
0.307061
0.30706
0.307059
0.307058
0.307057
0.307055
0.307053
0.307051
0.307049
0.307046
0.307043
0.30704
0.307037
0.307034
0.307031
0.307027
0.307023
0.306989
0.306992
0.306995
0.306997
0.307
0.307002
0.307005
0.307007
0.307009
0.307011
0.307013
0.307014
0.307016
0.307017
0.307018
0.307019
0.30702
0.30702
0.307021
0.307021
0.307021
0.307021
0.307021
0.307021
0.307021
0.307021
0.307021
0.307021
0.30702
0.30702
0.30702
0.307019
0.307019
0.307019
0.307019
0.307018
0.307018
0.307018
0.307018
0.307018
0.307018
0.307018
0.307018
0.307018
0.307018
0.307019
0.307019
0.307019
0.307019
0.30702
0.30702
0.30702
0.307021
0.307021
0.307021
0.307021
0.307021
0.307021
0.307021
0.307021
0.307021
0.307021
0.30702
0.30702
0.307019
0.307018
0.307017
0.307016
0.307014
0.307013
0.307011
0.307009
0.307007
0.307005
0.307002
0.307
0.306997
0.306995
0.306992
0.306989
0.306955
0.306957
0.306959
0.306961
0.306963
0.306965
0.306967
0.306969
0.30697
0.306972
0.306973
0.306975
0.306976
0.306977
0.306978
0.306979
0.306979
0.30698
0.306981
0.306981
0.306981
0.306982
0.306982
0.306982
0.306982
0.306982
0.306982
0.306982
0.306982
0.306981
0.306981
0.306981
0.306981
0.306981
0.306981
0.306981
0.306981
0.30698
0.30698
0.30698
0.30698
0.30698
0.30698
0.306981
0.306981
0.306981
0.306981
0.306981
0.306981
0.306981
0.306981
0.306982
0.306982
0.306982
0.306982
0.306982
0.306982
0.306982
0.306982
0.306981
0.306981
0.306981
0.30698
0.306979
0.306979
0.306978
0.306977
0.306976
0.306975
0.306973
0.306972
0.30697
0.306969
0.306967
0.306965
0.306963
0.306961
0.306959
0.306957
0.306955
0.30692
0.306922
0.306923
0.306925
0.306926
0.306928
0.306929
0.306931
0.306932
0.306934
0.306935
0.306936
0.306937
0.306938
0.306939
0.306939
0.30694
0.306941
0.306941
0.306942
0.306942
0.306942
0.306943
0.306943
0.306943
0.306943
0.306943
0.306943
0.306943
0.306943
0.306943
0.306943
0.306943
0.306943
0.306943
0.306943
0.306943
0.306943
0.306943
0.306943
0.306943
0.306943
0.306943
0.306943
0.306943
0.306943
0.306943
0.306943
0.306943
0.306943
0.306943
0.306943
0.306943
0.306943
0.306943
0.306943
0.306943
0.306943
0.306942
0.306942
0.306942
0.306941
0.306941
0.30694
0.306939
0.306939
0.306938
0.306937
0.306936
0.306935
0.306934
0.306932
0.306931
0.306929
0.306928
0.306926
0.306925
0.306923
0.306922
0.30692
0.306885
0.306886
0.306888
0.306889
0.30689
0.306891
0.306893
0.306894
0.306895
0.306896
0.306897
0.306898
0.306899
0.306899
0.3069
0.306901
0.306901
0.306902
0.306902
0.306903
0.306903
0.306904
0.306904
0.306904
0.306904
0.306904
0.306904
0.306905
0.306905
0.306905
0.306905
0.306905
0.306905
0.306905
0.306905
0.306905
0.306905
0.306905
0.306905
0.306905
0.306905
0.306905
0.306905
0.306905
0.306905
0.306905
0.306905
0.306905
0.306905
0.306905
0.306905
0.306905
0.306905
0.306904
0.306904
0.306904
0.306904
0.306904
0.306904
0.306903
0.306903
0.306902
0.306902
0.306901
0.306901
0.3069
0.306899
0.306899
0.306898
0.306897
0.306896
0.306895
0.306894
0.306893
0.306891
0.30689
0.306889
0.306888
0.306886
0.306885
0.30685
0.306851
0.306852
0.306853
0.306854
0.306855
0.306856
0.306857
0.306858
0.306858
0.306859
0.30686
0.306861
0.306861
0.306862
0.306863
0.306863
0.306864
0.306864
0.306864
0.306865
0.306865
0.306865
0.306866
0.306866
0.306866
0.306866
0.306866
0.306866
0.306867
0.306867
0.306867
0.306867
0.306867
0.306867
0.306867
0.306867
0.306867
0.306867
0.306867
0.306867
0.306867
0.306867
0.306867
0.306867
0.306867
0.306867
0.306867
0.306867
0.306867
0.306867
0.306866
0.306866
0.306866
0.306866
0.306866
0.306866
0.306865
0.306865
0.306865
0.306864
0.306864
0.306864
0.306863
0.306863
0.306862
0.306861
0.306861
0.30686
0.306859
0.306858
0.306858
0.306857
0.306856
0.306855
0.306854
0.306853
0.306852
0.306851
0.30685
0.306815
0.306816
0.306816
0.306817
0.306818
0.306818
0.306819
0.30682
0.306821
0.306821
0.306822
0.306823
0.306823
0.306824
0.306824
0.306825
0.306825
0.306826
0.306826
0.306826
0.306827
0.306827
0.306827
0.306828
0.306828
0.306828
0.306828
0.306828
0.306828
0.306829
0.306829
0.306829
0.306829
0.306829
0.306829
0.306829
0.306829
0.306829
0.306829
0.306829
0.306829
0.306829
0.306829
0.306829
0.306829
0.306829
0.306829
0.306829
0.306829
0.306829
0.306829
0.306828
0.306828
0.306828
0.306828
0.306828
0.306828
0.306827
0.306827
0.306827
0.306826
0.306826
0.306826
0.306825
0.306825
0.306824
0.306824
0.306823
0.306823
0.306822
0.306821
0.306821
0.30682
0.306819
0.306818
0.306818
0.306817
0.306816
0.306816
0.306815
0.30678
0.30678
0.306781
0.306781
0.306782
0.306782
0.306783
0.306783
0.306784
0.306784
0.306785
0.306785
0.306786
0.306786
0.306787
0.306787
0.306787
0.306788
0.306788
0.306789
0.306789
0.306789
0.306789
0.30679
0.30679
0.30679
0.30679
0.30679
0.306791
0.306791
0.306791
0.306791
0.306791
0.306791
0.306791
0.306791
0.306791
0.306791
0.306791
0.306791
0.306791
0.306791
0.306791
0.306791
0.306791
0.306791
0.306791
0.306791
0.306791
0.306791
0.306791
0.306791
0.30679
0.30679
0.30679
0.30679
0.30679
0.306789
0.306789
0.306789
0.306789
0.306788
0.306788
0.306787
0.306787
0.306787
0.306786
0.306786
0.306785
0.306785
0.306784
0.306784
0.306783
0.306783
0.306782
0.306782
0.306781
0.306781
0.30678
0.30678
0.306744
0.306744
0.306744
0.306745
0.306745
0.306746
0.306746
0.306746
0.306747
0.306747
0.306748
0.306748
0.306749
0.306749
0.306749
0.30675
0.30675
0.30675
0.306751
0.306751
0.306751
0.306751
0.306752
0.306752
0.306752
0.306752
0.306752
0.306753
0.306753
0.306753
0.306753
0.306753
0.306753
0.306753
0.306753
0.306753
0.306753
0.306753
0.306753
0.306753
0.306753
0.306753
0.306753
0.306753
0.306753
0.306753
0.306753
0.306753
0.306753
0.306753
0.306753
0.306753
0.306753
0.306752
0.306752
0.306752
0.306752
0.306752
0.306751
0.306751
0.306751
0.306751
0.30675
0.30675
0.30675
0.306749
0.306749
0.306749
0.306748
0.306748
0.306747
0.306747
0.306746
0.306746
0.306746
0.306745
0.306745
0.306744
0.306744
0.306744
0.306708
0.306708
0.306708
0.306709
0.306709
0.306709
0.306709
0.30671
0.30671
0.30671
0.306711
0.306711
0.306711
0.306712
0.306712
0.306712
0.306713
0.306713
0.306713
0.306713
0.306714
0.306714
0.306714
0.306714
0.306714
0.306715
0.306715
0.306715
0.306715
0.306715
0.306715
0.306715
0.306715
0.306716
0.306716
0.306716
0.306716
0.306716
0.306716
0.306716
0.306716
0.306716
0.306716
0.306716
0.306716
0.306716
0.306716
0.306715
0.306715
0.306715
0.306715
0.306715
0.306715
0.306715
0.306715
0.306714
0.306714
0.306714
0.306714
0.306714
0.306713
0.306713
0.306713
0.306713
0.306712
0.306712
0.306712
0.306711
0.306711
0.306711
0.30671
0.30671
0.30671
0.306709
0.306709
0.306709
0.306709
0.306708
0.306708
0.306708
0.306672
0.306672
0.306672
0.306672
0.306672
0.306673
0.306673
0.306673
0.306673
0.306674
0.306674
0.306674
0.306674
0.306675
0.306675
0.306675
0.306675
0.306676
0.306676
0.306676
0.306676
0.306676
0.306677
0.306677
0.306677
0.306677
0.306677
0.306677
0.306677
0.306678
0.306678
0.306678
0.306678
0.306678
0.306678
0.306678
0.306678
0.306678
0.306678
0.306678
0.306678
0.306678
0.306678
0.306678
0.306678
0.306678
0.306678
0.306678
0.306678
0.306678
0.306678
0.306677
0.306677
0.306677
0.306677
0.306677
0.306677
0.306677
0.306676
0.306676
0.306676
0.306676
0.306676
0.306675
0.306675
0.306675
0.306675
0.306674
0.306674
0.306674
0.306674
0.306673
0.306673
0.306673
0.306673
0.306672
0.306672
0.306672
0.306672
0.306672
0.306635
0.306635
0.306636
0.306636
0.306636
0.306636
0.306636
0.306636
0.306637
0.306637
0.306637
0.306637
0.306637
0.306638
0.306638
0.306638
0.306638
0.306638
0.306638
0.306639
0.306639
0.306639
0.306639
0.306639
0.306639
0.30664
0.30664
0.30664
0.30664
0.30664
0.30664
0.30664
0.30664
0.30664
0.30664
0.30664
0.30664
0.306641
0.306641
0.306641
0.306641
0.306641
0.306641
0.30664
0.30664
0.30664
0.30664
0.30664
0.30664
0.30664
0.30664
0.30664
0.30664
0.30664
0.30664
0.306639
0.306639
0.306639
0.306639
0.306639
0.306639
0.306638
0.306638
0.306638
0.306638
0.306638
0.306638
0.306637
0.306637
0.306637
0.306637
0.306637
0.306636
0.306636
0.306636
0.306636
0.306636
0.306636
0.306635
0.306635
0.306599
0.306599
0.306599
0.306599
0.306599
0.306599
0.306599
0.3066
0.3066
0.3066
0.3066
0.3066
0.3066
0.3066
0.306601
0.306601
0.306601
0.306601
0.306601
0.306601
0.306602
0.306602
0.306602
0.306602
0.306602
0.306602
0.306602
0.306602
0.306602
0.306603
0.306603
0.306603
0.306603
0.306603
0.306603
0.306603
0.306603
0.306603
0.306603
0.306603
0.306603
0.306603
0.306603
0.306603
0.306603
0.306603
0.306603
0.306603
0.306603
0.306603
0.306603
0.306602
0.306602
0.306602
0.306602
0.306602
0.306602
0.306602
0.306602
0.306602
0.306601
0.306601
0.306601
0.306601
0.306601
0.306601
0.3066
0.3066
0.3066
0.3066
0.3066
0.3066
0.3066
0.306599
0.306599
0.306599
0.306599
0.306599
0.306599
0.306599
0.306562
0.306562
0.306562
0.306562
0.306562
0.306562
0.306563
0.306563
0.306563
0.306563
0.306563
0.306563
0.306563
0.306563
0.306564
0.306564
0.306564
0.306564
0.306564
0.306564
0.306564
0.306564
0.306565
0.306565
0.306565
0.306565
0.306565
0.306565
0.306565
0.306565
0.306565
0.306565
0.306565
0.306565
0.306565
0.306565
0.306566
0.306566
0.306566
0.306566
0.306566
0.306566
0.306566
0.306566
0.306565
0.306565
0.306565
0.306565
0.306565
0.306565
0.306565
0.306565
0.306565
0.306565
0.306565
0.306565
0.306565
0.306565
0.306564
0.306564
0.306564
0.306564
0.306564
0.306564
0.306564
0.306564
0.306563
0.306563
0.306563
0.306563
0.306563
0.306563
0.306563
0.306563
0.306562
0.306562
0.306562
0.306562
0.306562
0.306562
0.306525
0.306525
0.306526
0.306526
0.306526
0.306526
0.306526
0.306526
0.306526
0.306526
0.306526
0.306526
0.306526
0.306526
0.306526
0.306527
0.306527
0.306527
0.306527
0.306527
0.306527
0.306527
0.306527
0.306527
0.306527
0.306528
0.306528
0.306528
0.306528
0.306528
0.306528
0.306528
0.306528
0.306528
0.306528
0.306528
0.306528
0.306528
0.306528
0.306528
0.306528
0.306528
0.306528
0.306528
0.306528
0.306528
0.306528
0.306528
0.306528
0.306528
0.306528
0.306528
0.306528
0.306528
0.306528
0.306527
0.306527
0.306527
0.306527
0.306527
0.306527
0.306527
0.306527
0.306527
0.306527
0.306526
0.306526
0.306526
0.306526
0.306526
0.306526
0.306526
0.306526
0.306526
0.306526
0.306526
0.306526
0.306526
0.306525
0.306525
0.306489
0.306489
0.306489
0.306489
0.306489
0.306489
0.306489
0.306489
0.306489
0.306489
0.306489
0.306489
0.306489
0.306489
0.306489
0.306489
0.30649
0.30649
0.30649
0.30649
0.30649
0.30649
0.30649
0.30649
0.30649
0.30649
0.30649
0.30649
0.30649
0.30649
0.306491
0.306491
0.306491
0.306491
0.306491
0.306491
0.306491
0.306491
0.306491
0.306491
0.306491
0.306491
0.306491
0.306491
0.306491
0.306491
0.306491
0.306491
0.306491
0.306491
0.30649
0.30649
0.30649
0.30649
0.30649
0.30649
0.30649
0.30649
0.30649
0.30649
0.30649
0.30649
0.30649
0.30649
0.306489
0.306489
0.306489
0.306489
0.306489
0.306489
0.306489
0.306489
0.306489
0.306489
0.306489
0.306489
0.306489
0.306489
0.306489
0.306489
0.306452
0.306452
0.306452
0.306452
0.306452
0.306452
0.306452
0.306452
0.306452
0.306452
0.306452
0.306452
0.306452
0.306452
0.306452
0.306452
0.306452
0.306452
0.306453
0.306453
0.306453
0.306453
0.306453
0.306453
0.306453
0.306453
0.306453
0.306453
0.306453
0.306453
0.306453
0.306453
0.306453
0.306453
0.306453
0.306453
0.306453
0.306453
0.306453
0.306453
0.306453
0.306453
0.306453
0.306453
0.306453
0.306453
0.306453
0.306453
0.306453
0.306453
0.306453
0.306453
0.306453
0.306453
0.306453
0.306453
0.306453
0.306453
0.306453
0.306453
0.306453
0.306453
0.306452
0.306452
0.306452
0.306452
0.306452
0.306452
0.306452
0.306452
0.306452
0.306452
0.306452
0.306452
0.306452
0.306452
0.306452
0.306452
0.306452
0.306452
0.306415
0.306415
0.306415
0.306415
0.306415
0.306415
0.306415
0.306415
0.306415
0.306415
0.306415
0.306415
0.306415
0.306415
0.306415
0.306415
0.306415
0.306415
0.306415
0.306415
0.306415
0.306416
0.306416
0.306416
0.306416
0.306416
0.306416
0.306416
0.306416
0.306416
0.306416
0.306416
0.306416
0.306416
0.306416
0.306416
0.306416
0.306416
0.306416
0.306416
0.306416
0.306416
0.306416
0.306416
0.306416
0.306416
0.306416
0.306416
0.306416
0.306416
0.306416
0.306416
0.306416
0.306416
0.306416
0.306416
0.306416
0.306416
0.306416
0.306415
0.306415
0.306415
0.306415
0.306415
0.306415
0.306415
0.306415
0.306415
0.306415
0.306415
0.306415
0.306415
0.306415
0.306415
0.306415
0.306415
0.306415
0.306415
0.306415
0.306415
0.306378
0.306378
0.306378
0.306378
0.306378
0.306378
0.306378
0.306378
0.306378
0.306378
0.306378
0.306378
0.306378
0.306378
0.306378
0.306378
0.306378
0.306378
0.306378
0.306378
0.306378
0.306378
0.306378
0.306378
0.306378
0.306378
0.306379
0.306379
0.306379
0.306379
0.306379
0.306379
0.306379
0.306379
0.306379
0.306379
0.306379
0.306379
0.306379
0.306379
0.306379
0.306379
0.306379
0.306379
0.306379
0.306379
0.306379
0.306379
0.306379
0.306379
0.306379
0.306379
0.306379
0.306379
0.306378
0.306378
0.306378
0.306378
0.306378
0.306378
0.306378
0.306378
0.306378
0.306378
0.306378
0.306378
0.306378
0.306378
0.306378
0.306378
0.306378
0.306378
0.306378
0.306378
0.306378
0.306378
0.306378
0.306378
0.306378
0.306378
0.306341
0.306341
0.306341
0.306341
0.306341
0.306341
0.306341
0.306341
0.306341
0.306341
0.306341
0.306341
0.306341
0.306341
0.306341
0.306341
0.306341
0.306341
0.306341
0.306341
0.306341
0.306341
0.306341
0.306341
0.306341
0.306341
0.306341
0.306341
0.306341
0.306341
0.306341
0.306341
0.306341
0.306341
0.306341
0.306341
0.306341
0.306341
0.306341
0.306342
0.306342
0.306341
0.306341
0.306341
0.306341
0.306341
0.306341
0.306341
0.306341
0.306341
0.306341
0.306341
0.306341
0.306341
0.306341
0.306341
0.306341
0.306341
0.306341
0.306341
0.306341
0.306341
0.306341
0.306341
0.306341
0.306341
0.306341
0.306341
0.306341
0.306341
0.306341
0.306341
0.306341
0.306341
0.306341
0.306341
0.306341
0.306341
0.306341
0.306341
0.306304
0.306304
0.306304
0.306304
0.306304
0.306304
0.306304
0.306304
0.306304
0.306304
0.306304
0.306304
0.306304
0.306304
0.306304
0.306304
0.306304
0.306304
0.306304
0.306304
0.306304
0.306304
0.306304
0.306304
0.306304
0.306304
0.306304
0.306304
0.306304
0.306304
0.306304
0.306304
0.306304
0.306304
0.306304
0.306304
0.306304
0.306304
0.306304
0.306304
0.306304
0.306304
0.306304
0.306304
0.306304
0.306304
0.306304
0.306304
0.306304
0.306304
0.306304
0.306304
0.306304
0.306304
0.306304
0.306304
0.306304
0.306304
0.306304
0.306304
0.306304
0.306304
0.306304
0.306304
0.306304
0.306304
0.306304
0.306304
0.306304
0.306304
0.306304
0.306304
0.306304
0.306304
0.306304
0.306304
0.306304
0.306304
0.306304
0.306304
0.306267
0.306267
0.306267
0.306267
0.306267
0.306267
0.306267
0.306267
0.306267
0.306267
0.306267
0.306267
0.306267
0.306267
0.306267
0.306267
0.306267
0.306267
0.306267
0.306267
0.306267
0.306267
0.306267
0.306267
0.306267
0.306267
0.306267
0.306267
0.306267
0.306267
0.306267
0.306267
0.306267
0.306267
0.306267
0.306267
0.306267
0.306267
0.306267
0.306267
0.306267
0.306267
0.306267
0.306267
0.306267
0.306267
0.306267
0.306267
0.306267
0.306267
0.306267
0.306267
0.306267
0.306267
0.306267
0.306267
0.306267
0.306267
0.306267
0.306267
0.306267
0.306267
0.306267
0.306267
0.306267
0.306267
0.306267
0.306267
0.306267
0.306267
0.306267
0.306267
0.306267
0.306267
0.306267
0.306267
0.306267
0.306267
0.306267
0.306267
0.306229
0.306229
0.306229
0.306229
0.306229
0.306229
0.306229
0.306229
0.306229
0.306229
0.306229
0.306229
0.306229
0.306229
0.306229
0.306229
0.306229
0.306229
0.30623
0.30623
0.30623
0.30623
0.30623
0.30623
0.30623
0.30623
0.30623
0.30623
0.30623
0.30623
0.30623
0.30623
0.30623
0.30623
0.30623
0.30623
0.30623
0.30623
0.30623
0.30623
0.30623
0.30623
0.30623
0.30623
0.30623
0.30623
0.30623
0.30623
0.30623
0.30623
0.30623
0.30623
0.30623
0.30623
0.30623
0.30623
0.30623
0.30623
0.30623
0.30623
0.30623
0.30623
0.306229
0.306229
0.306229
0.306229
0.306229
0.306229
0.306229
0.306229
0.306229
0.306229
0.306229
0.306229
0.306229
0.306229
0.306229
0.306229
0.306229
0.306229
0.306192
0.306192
0.306192
0.306192
0.306192
0.306192
0.306192
0.306192
0.306192
0.306192
0.306192
0.306192
0.306192
0.306192
0.306192
0.306192
0.306192
0.306192
0.306192
0.306192
0.306192
0.306192
0.306192
0.306192
0.306192
0.306192
0.306192
0.306192
0.306192
0.306192
0.306192
0.306192
0.306192
0.306192
0.306193
0.306193
0.306193
0.306193
0.306193
0.306193
0.306193
0.306193
0.306193
0.306193
0.306193
0.306193
0.306192
0.306192
0.306192
0.306192
0.306192
0.306192
0.306192
0.306192
0.306192
0.306192
0.306192
0.306192
0.306192
0.306192
0.306192
0.306192
0.306192
0.306192
0.306192
0.306192
0.306192
0.306192
0.306192
0.306192
0.306192
0.306192
0.306192
0.306192
0.306192
0.306192
0.306192
0.306192
0.306192
0.306192
0.306155
0.306155
0.306155
0.306155
0.306155
0.306155
0.306155
0.306155
0.306155
0.306155
0.306155
0.306155
0.306155
0.306155
0.306155
0.306155
0.306155
0.306155
0.306155
0.306155
0.306155
0.306155
0.306155
0.306155
0.306155
0.306155
0.306155
0.306155
0.306155
0.306155
0.306155
0.306155
0.306155
0.306155
0.306155
0.306155
0.306155
0.306155
0.306155
0.306155
0.306155
0.306155
0.306155
0.306155
0.306155
0.306155
0.306155
0.306155
0.306155
0.306155
0.306155
0.306155
0.306155
0.306155
0.306155
0.306155
0.306155
0.306155
0.306155
0.306155
0.306155
0.306155
0.306155
0.306155
0.306155
0.306155
0.306155
0.306155
0.306155
0.306155
0.306155
0.306155
0.306155
0.306155
0.306155
0.306155
0.306155
0.306155
0.306155
0.306155
0.306118
0.306118
0.306118
0.306118
0.306118
0.306118
0.306118
0.306118
0.306118
0.306118
0.306118
0.306118
0.306118
0.306118
0.306118
0.306118
0.306118
0.306118