/*--------------------------------*- C++ -*----------------------------------*\
  =========                 |
  \\      /  F ield         | OpenFOAM: The Open Source CFD Toolbox
   \\    /   O peration     | Website:  https://openfoam.org
    \\  /    A nd           | Version:  11
     \\/     M anipulation  |
\*---------------------------------------------------------------------------*/
FoamFile
{
    format      ascii;
    class       volScalarField;
    location    "20";
    object      C;
}
// * * * * * * * * * * * * * * * * * * * * * * * * * * * * * * * * * * * * * //

dimensions      [0 0 0 1 0 0 0];

internalField   nonuniform List<scalar> 
332800
(
3.04442e-65
2.98437e-65
2.88325e-65
2.75381e-65
2.60535e-65
2.44499e-65
2.27831e-65
2.1097e-65
1.94263e-65
1.77976e-65
1.6231e-65
1.47409e-65
1.33372e-65
1.2026e-65
1.08103e-65
9.6905e-66
8.66508e-66
7.73113e-66
6.88459e-66
6.1207e-66
5.43418e-66
4.81955e-66
4.27121e-66
3.78364e-66
3.35151e-66
2.9697e-66
2.63341e-66
2.33817e-66
2.07985e-66
1.85471e-66
1.65934e-66
1.49069e-66
1.34608e-66
1.22312e-66
1.11976e-66
1.03424e-66
9.65087e-67
9.11081e-67
8.71275e-67
8.4496e-67
8.31665e-67
8.3115e-67
8.434e-67
8.68626e-67
9.07268e-67
9.59991e-67
1.0277e-66
1.11153e-66
1.21289e-66
1.33342e-66
1.47505e-66
1.63995e-66
1.83062e-66
2.04982e-66
2.30058e-66
2.58624e-66
2.91036e-66
3.27677e-66
3.68948e-66
4.15261e-66
4.67037e-66
5.24688e-66
5.88611e-66
6.59165e-66
7.36655e-66
8.21302e-66
9.13217e-66
1.01237e-65
1.11852e-65
1.23123e-65
1.34975e-65
1.47297e-65
1.59938e-65
1.72696e-65
1.8531e-65
1.97446e-65
2.08683e-65
2.18481e-65
2.26137e-65
2.30683e-65
9.42088e-65
9.28119e-65
9.03113e-65
8.69602e-65
8.29759e-65
7.8544e-65
7.38221e-65
6.89425e-65
6.40148e-65
5.91282e-65
5.4354e-65
4.97474e-65
4.53496e-65
4.119e-65
3.72875e-65
3.36529e-65
3.02896e-65
2.71958e-65
2.4365e-65
2.17877e-65
1.94517e-65
1.73434e-65
1.54481e-65
1.37506e-65
1.22357e-65
1.08886e-65
9.69473e-66
8.64058e-66
7.7133e-66
6.90101e-66
6.19283e-66
5.5789e-66
5.05034e-66
4.5993e-66
4.2189e-66
3.9032e-66
3.64719e-66
3.44674e-66
3.29855e-66
3.20018e-66
3.14998e-66
3.14708e-66
3.19139e-66
3.28359e-66
3.42513e-66
3.61823e-66
3.86588e-66
4.17187e-66
4.54081e-66
4.97811e-66
5.48999e-66
6.08353e-66
6.7666e-66
7.54787e-66
8.43676e-66
9.44336e-66
1.05784e-65
1.18528e-65
1.32781e-65
1.48656e-65
1.66262e-65
1.85701e-65
2.07066e-65
2.30426e-65
2.55831e-65
2.83294e-65
3.12788e-65
3.44233e-65
3.77482e-65
4.12316e-65
4.48421e-65
4.8538e-65
5.22654e-65
5.59567e-65
5.95291e-65
6.28823e-65
6.58972e-65
6.84331e-65
7.03256e-65
7.13828e-65
1.6392e-64
1.61832e-64
1.58012e-64
1.52797e-64
1.46492e-64
1.39373e-64
1.31687e-64
1.23645e-64
1.15431e-64
1.072e-64
9.90768e-65
9.11652e-65
8.35447e-65
7.62754e-65
6.94002e-65
6.2947e-65
5.69312e-65
5.13579e-65
4.62236e-65
4.15182e-65
3.72266e-65
3.33299e-65
2.98065e-65
2.66335e-65
2.3787e-65
2.12428e-65
1.89775e-65
1.69682e-65
1.51931e-65
1.3632e-65
1.22658e-65
1.10773e-65
1.00508e-65
9.17222e-66
8.42922e-66
7.81104e-66
7.30856e-66
6.9142e-66
6.62193e-66
6.42719e-66
6.32689e-66
6.31939e-66
6.40445e-66
6.58323e-66
6.8583e-66
7.23362e-66
7.71454e-66
8.30781e-66
9.0216e-66
9.86546e-66
1.08503e-65
1.19885e-65
1.32936e-65
1.47804e-65
1.64648e-65
1.83635e-65
2.0494e-65
2.28742e-65
2.55217e-65
2.84537e-65
3.16862e-65
3.52333e-65
3.91064e-65
4.33128e-65
4.7855e-65
5.27292e-65
5.79234e-65
6.34167e-65
6.91764e-65
7.51571e-65
8.12982e-65
8.75225e-65
9.37337e-65
9.98154e-65
1.05629e-64
1.11014e-64
1.15783e-64
1.19729e-64
1.22619e-64
1.24199e-64
2.42279e-64
2.39498e-64
2.34358e-64
2.27266e-64
2.18608e-64
2.08744e-64
1.97998e-64
1.86661e-64
1.74989e-64
1.632e-64
1.51482e-64
1.39986e-64
1.28838e-64
1.18132e-64
1.0794e-64
9.83149e-65
8.92873e-65
8.08744e-65
7.308e-65
6.58974e-65
5.93114e-65
5.33004e-65
4.78384e-65
4.28959e-65
3.84414e-65
3.44425e-65
3.08668e-65
2.76824e-65
2.48585e-65
2.23659e-65
2.01772e-65
1.8267e-65
1.66123e-65
1.51922e-65
1.39882e-65
1.2984e-65
1.2166e-65
1.15226e-65
1.10445e-65
1.07247e-65
1.05585e-65
1.05433e-65
1.06785e-65
1.09658e-65
1.14091e-65
1.20141e-65
1.27887e-65
1.37431e-65
1.48891e-65
1.62409e-65
1.78144e-65
1.96275e-65
2.16996e-65
2.40519e-65
2.67068e-65
2.96875e-65
3.30179e-65
3.67219e-65
4.08227e-65
4.53422e-65
5.02997e-65
5.57112e-65
6.15877e-65
6.79341e-65
7.47474e-65
8.20146e-65
8.97111e-65
9.77985e-65
1.06222e-64
1.14909e-64
1.23766e-64
1.32676e-64
1.415e-64
1.50072e-64
1.58197e-64
1.65656e-64
1.72203e-64
1.77567e-64
1.81455e-64
1.83559e-64
3.32014e-64
3.28485e-64
3.2192e-64
3.12808e-64
3.01616e-64
2.88786e-64
2.74727e-64
2.59808e-64
2.44359e-64
2.28668e-64
2.12983e-64
1.97513e-64
1.82429e-64
1.67868e-64
1.53936e-64
1.4071e-64
1.28244e-64
1.1657e-64
1.05703e-64
9.56428e-65
8.6376e-65
7.78809e-65
7.01285e-65
6.30841e-65
5.67096e-65
5.09648e-65
4.58087e-65
4.12003e-65
3.70997e-65
3.34682e-65
3.02697e-65
2.74702e-65
2.50384e-65
2.29461e-65
2.11679e-65
1.96818e-65
1.84684e-65
1.7512e-65
1.67996e-65
1.63213e-65
1.60705e-65
1.60433e-65
1.62389e-65
1.66594e-65
1.731e-65
1.81984e-65
1.93353e-65
2.07344e-65
2.24118e-65
2.43862e-65
2.66792e-65
2.93142e-65
3.23171e-65
3.57153e-65
3.95378e-65
4.38143e-65
4.85748e-65
5.38488e-65
5.96642e-65
6.60465e-65
7.30171e-65
8.05921e-65
8.87805e-65
9.75822e-65
1.06986e-64
1.16967e-64
1.27484e-64
1.3848e-64
1.49872e-64
1.61558e-64
1.73409e-64
1.85265e-64
1.9694e-64
2.08216e-64
2.18844e-64
2.28542e-64
2.37003e-64
2.43893e-64
2.48857e-64
2.51525e-64
4.36095e-64
4.31722e-64
4.23556e-64
4.12176e-64
3.98143e-64
3.81992e-64
3.6422e-64
3.45283e-64
3.25591e-64
3.05509e-64
2.85351e-64
2.65386e-64
2.45839e-64
2.26892e-64
2.08688e-64
1.91337e-64
1.74917e-64
1.59479e-64
1.45052e-64
1.31643e-64
1.19244e-64
1.07836e-64
9.73867e-65
8.78575e-65
7.92044e-65
7.13796e-65
6.43334e-65
5.80158e-65
5.23771e-65
4.73691e-65
4.29459e-65
3.90643e-65
3.56843e-65
3.27694e-65
3.02868e-65
2.82076e-65
2.65067e-65
2.51632e-65
2.41601e-65
2.34842e-65
2.31265e-65
2.30819e-65
2.33491e-65
2.39306e-65
2.48329e-65
2.60659e-65
2.76433e-65
2.95826e-65
3.19043e-65
3.46325e-65
3.77942e-65
4.14192e-65
4.55397e-65
5.019e-65
5.54056e-65
6.12227e-65
6.76773e-65
7.48042e-65
8.26356e-65
9.11997e-65
1.00519e-64
1.10609e-64
1.21473e-64
1.33107e-64
1.45487e-64
1.58575e-64
1.72311e-64
1.86612e-64
2.0137e-64
2.16445e-64
2.3167e-64
2.46839e-64
2.61715e-64
2.76022e-64
2.89451e-64
3.01657e-64
3.12262e-64
3.20863e-64
3.27035e-64
3.30341e-64
5.57885e-64
5.52537e-64
5.42526e-64
5.28538e-64
5.11243e-64
4.91281e-64
4.69252e-64
4.4571e-64
4.21157e-64
3.9604e-64
3.70749e-64
3.45622e-64
3.20942e-64
2.96942e-64
2.73809e-64
2.51689e-64
2.30688e-64
2.10879e-64
1.92306e-64
1.74989e-64
1.58926e-64
1.44099e-64
1.30476e-64
1.18015e-64
1.06665e-64
9.63713e-65
8.70757e-65
7.87181e-65
7.12387e-65
6.45788e-65
5.86822e-65
5.34955e-65
4.89691e-65
4.50574e-65
4.17193e-65
3.89183e-65
3.66228e-65
3.48061e-65
3.34464e-65
3.25271e-65
3.20365e-65
3.19676e-65
3.23188e-65
3.30928e-65
3.42975e-65
3.59453e-65
3.80532e-65
4.06424e-65
4.37387e-65
4.73715e-65
5.1574e-65
5.63828e-65
6.18369e-65
6.79775e-65
7.48473e-65
8.24892e-65
9.09452e-65
1.00255e-64
1.10456e-64
1.21577e-64
1.33642e-64
1.46663e-64
1.60641e-64
1.7556e-64
1.91386e-64
2.08063e-64
2.25509e-64
2.43616e-64
2.62241e-64
2.81207e-64
3.003e-64
3.19265e-64
3.37807e-64
3.55586e-64
3.72226e-64
3.87305e-64
4.00371e-64
4.1094e-64
4.18504e-64
4.22546e-64
7.0128e-64
6.9479e-64
6.82622e-64
6.65589e-64
6.4449e-64
6.2009e-64
5.93109e-64
5.64214e-64
5.34011e-64
5.03044e-64
4.7179e-64
4.40664e-64
4.10017e-64
3.8014e-64
3.5127e-64
3.23593e-64
2.97247e-64
2.72331e-64
2.4891e-64
2.27014e-64
2.0665e-64
1.87804e-64
1.70443e-64
1.54521e-64
1.39982e-64
1.26764e-64
1.14797e-64
1.04013e-64
9.43388e-65
8.57056e-65
7.80453e-65
7.12935e-65
6.53896e-65
6.0278e-65
5.59082e-65
5.22353e-65
4.92201e-65
4.68296e-65
4.50365e-65
4.38201e-65
4.31655e-65
4.3064e-65
4.3513e-65
4.45158e-65
4.60816e-65
4.82254e-65
5.09676e-65
5.43342e-65
5.83561e-65
6.30689e-65
6.85125e-65
7.47307e-65
8.17701e-65
8.96797e-65
9.85094e-65
1.08309e-64
1.19128e-64
1.31011e-64
1.43998e-64
1.58122e-64
1.73405e-64
1.89858e-64
2.07474e-64
2.26227e-64
2.4607e-64
2.66925e-64
2.88689e-64
3.11218e-64
3.34336e-64
3.57819e-64
3.81404e-64
4.04777e-64
4.27576e-64
4.4939e-64
4.69762e-64
4.88187e-64
5.04121e-64
5.16985e-64
5.26176e-64
5.31079e-64
8.7085e-64
8.63012e-64
8.483e-64
8.27681e-64
8.02106e-64
7.72489e-64
7.39691e-64
7.04512e-64
6.67681e-64
6.29854e-64
5.91611e-64
5.53455e-64
5.15815e-64
4.79051e-64
4.43456e-64
4.09261e-64
3.76645e-64
3.45735e-64
3.16616e-64
2.89335e-64
2.63909e-64
2.40326e-64
2.18554e-64
1.98544e-64
1.80233e-64
1.63549e-64
1.48414e-64
1.34746e-64
1.22461e-64
1.11477e-64
1.01712e-64
9.30893e-65
8.55369e-65
7.89872e-65
7.33792e-65
6.86583e-65
6.47768e-65
6.16944e-65
5.93777e-65
5.78009e-65
5.69458e-65
5.68014e-65
5.73641e-65
5.86376e-65
6.06326e-65
6.33669e-65
6.6865e-65
7.11577e-65
7.62819e-65
8.228e-65
8.91994e-65
9.7092e-65
1.06013e-64
1.16019e-64
1.27169e-64
1.39521e-64
1.5313e-64
1.68048e-64
1.84319e-64
2.01977e-64
2.21045e-64
2.4153e-64
2.63416e-64
2.86668e-64
3.11219e-64
3.36972e-64
3.63791e-64
3.91501e-64
4.1988e-64
4.48655e-64
4.77501e-64
5.06038e-64
5.33829e-64
5.60377e-64
5.85131e-64
6.07486e-64
6.26793e-64
6.42359e-64
6.53467e-64
6.59386e-64
1.072e-63
1.06256e-63
1.04483e-63
1.01996e-63
9.89093e-64
9.53305e-64
9.13632e-64
8.7103e-64
8.26375e-64
7.80456e-64
7.33969e-64
6.87525e-64
6.41643e-64
5.96762e-64
5.5324e-64
5.11365e-64
4.71357e-64
4.33379e-64
3.9754e-64
3.63905e-64
3.32502e-64
3.03323e-64
2.76337e-64
2.5149e-64
2.28712e-64
2.07921e-64
1.89027e-64
1.71934e-64
1.56545e-64
1.42762e-64
1.3049e-64
1.19637e-64
1.10116e-64
1.01847e-64
9.47576e-65
8.87814e-65
8.3861e-65
7.99475e-65
7.70007e-65
7.4989e-65
7.38902e-65
7.36904e-65
7.43851e-65
7.59783e-65
7.84823e-65
8.19182e-65
8.63147e-65
9.17083e-65
9.81427e-65
1.05668e-64
1.1434e-64
1.2422e-64
1.35372e-64
1.47863e-64
1.61761e-64
1.77133e-64
1.94042e-64
2.12546e-64
2.32694e-64
2.54524e-64
2.78056e-64
3.03293e-64
3.30213e-64
3.58764e-64
3.88861e-64
4.20381e-64
4.53155e-64
4.86967e-64
5.21542e-64
5.56552e-64
5.916e-64
6.26228e-64
6.59907e-64
6.92043e-64
7.21973e-64
7.48975e-64
7.72271e-64
7.91036e-64
8.04416e-64
8.11539e-64
1.31113e-63
1.29979e-63
1.27848e-63
1.24856e-63
1.2114e-63
1.16828e-63
1.12045e-63
1.06905e-63
1.01512e-63
9.59609e-64
9.03358e-64
8.471e-64
7.91462e-64
7.36975e-64
6.84075e-64
6.33114e-64
5.84362e-64
5.38021e-64
4.94232e-64
4.53078e-64
4.14599e-64
3.78794e-64
3.45631e-64
3.15052e-64
2.86977e-64
2.61314e-64
2.37957e-64
2.16796e-64
1.97717e-64
1.80605e-64
1.65347e-64
1.51836e-64
1.39968e-64
1.29649e-64
1.20789e-64
1.13313e-64
1.07149e-64
1.0224e-64
9.85371e-65
9.60023e-65
9.46083e-65
9.43384e-65
9.51865e-65
9.71568e-65
1.00264e-64
1.04532e-64
1.09995e-64
1.16697e-64
1.24687e-64
1.34026e-64
1.44779e-64
1.57017e-64
1.70815e-64
1.86253e-64
2.03407e-64
2.22357e-64
2.43173e-64
2.65923e-64
2.90659e-64
3.17423e-64
3.46235e-64
3.77092e-64
4.09961e-64
4.44777e-64
4.81431e-64
5.19769e-64
5.59584e-64
6.00611e-64
6.42518e-64
6.84905e-64
7.27295e-64
7.69136e-64
8.09792e-64
8.48551e-64
8.84621e-64
9.17136e-64
9.45168e-64
9.67734e-64
9.83813e-64
9.92369e-64
1.59588e-63
1.58227e-63
1.55669e-63
1.52076e-63
1.4761e-63
1.42427e-63
1.36674e-63
1.30486e-63
1.23991e-63
1.173e-63
1.10515e-63
1.03724e-63
9.70018e-64
9.04129e-64
8.40101e-64
7.78358e-64
7.19233e-64
6.62973e-64
6.09752e-64
5.59679e-64
5.12807e-64
4.69141e-64
4.28648e-64
3.91264e-64
3.56901e-64
3.2545e-64
2.96791e-64
2.70795e-64
2.47327e-64
2.26254e-64
2.07443e-64
1.90766e-64
1.76101e-64
1.63335e-64
1.52365e-64
1.43096e-64
1.35448e-64
1.29348e-64
1.2474e-64
1.21577e-64
1.19827e-64
1.19469e-64
1.20495e-64
1.22911e-64
1.26733e-64
1.31988e-64
1.38718e-64
1.46972e-64
1.5681e-64
1.68303e-64
1.81526e-64
1.96563e-64
2.13503e-64
2.32437e-64
2.53456e-64
2.76648e-64
3.02099e-64
3.29881e-64
3.60057e-64
3.9267e-64
4.27739e-64
4.65257e-64
5.05179e-64
5.47421e-64
5.91847e-64
6.3827e-64
6.86436e-64
7.36022e-64
7.86628e-64
8.37771e-64
8.88879e-64
9.39286e-64
9.88232e-64
1.03486e-63
1.07823e-63
1.11731e-63
1.15098e-63
1.17807e-63
1.19736e-63
1.20762e-63
1.93535e-63
1.91904e-63
1.88836e-63
1.84526e-63
1.79167e-63
1.72944e-63
1.66034e-63
1.58599e-63
1.5079e-63
1.42743e-63
1.34577e-63
1.26399e-63
1.18299e-63
1.10354e-63
1.02627e-63
9.51713e-64
8.80256e-64
8.12206e-64
7.47776e-64
6.87102e-64
6.30254e-64
5.77245e-64
5.2804e-64
4.82569e-64
4.40729e-64
4.02397e-64
3.67432e-64
3.35683e-64
3.06994e-64
2.81206e-64
2.58164e-64
2.37716e-64
2.19718e-64
2.04037e-64
1.90549e-64
1.79142e-64
1.6972e-64
1.62198e-64
1.56506e-64
1.52591e-64
1.50412e-64
1.49945e-64
1.5118e-64
1.54122e-64
1.5879e-64
1.65217e-64
1.7345e-64
1.83548e-64
1.95582e-64
2.09633e-64
2.25791e-64
2.44155e-64
2.64826e-64
2.87913e-64
3.1352e-64
3.41753e-64
3.72706e-64
4.06465e-64
4.431e-64
4.82658e-64
5.25159e-64
5.70587e-64
6.18885e-64
6.69947e-64
7.23609e-64
7.79638e-64
8.37728e-64
8.9749e-64
9.5844e-64
1.02e-63
1.08148e-63
1.14208e-63
1.20089e-63
1.2569e-63
1.30897e-63
1.35586e-63
1.39624e-63
1.42873e-63
1.45185e-63
1.46415e-63
2.34041e-63
2.32087e-63
2.2841e-63
2.23244e-63
2.16818e-63
2.09355e-63
2.01065e-63
1.92142e-63
1.82767e-63
1.73101e-63
1.6329e-63
1.53458e-63
1.43716e-63
1.34156e-63
1.24853e-63
1.1587e-63
1.07256e-63
9.90475e-64
9.12702e-64
8.39411e-64
7.70691e-64
7.06562e-64
6.4699e-64
5.91893e-64
5.41155e-64
4.94633e-64
4.52161e-64
4.13564e-64
3.78657e-64
3.47254e-64
3.19172e-64
2.94231e-64
2.72262e-64
2.53104e-64
2.36613e-64
2.22656e-64
2.11117e-64
2.01895e-64
1.94909e-64
1.90093e-64
1.87399e-64
1.86797e-64
1.88276e-64
1.9184e-64
1.97512e-64
2.05331e-64
2.1535e-64
2.2764e-64
2.42283e-64
2.59376e-64
2.79023e-64
3.01341e-64
3.2645e-64
3.54474e-64
3.85537e-64
4.19761e-64
4.57257e-64
4.98123e-64
5.42439e-64
5.90256e-64
6.41594e-64
6.96431e-64
7.54693e-64
8.1625e-64
8.809e-64
9.48363e-64
1.01827e-63
1.09014e-63
1.16341e-63
1.23738e-63
1.31121e-63
1.38396e-63
1.45454e-63
1.52173e-63
1.58416e-63
1.64038e-63
1.68878e-63
1.7277e-63
1.7554e-63
1.77013e-63
2.82403e-63
2.80063e-63
2.75658e-63
2.69469e-63
2.6177e-63
2.52826e-63
2.42887e-63
2.32188e-63
2.20944e-63
2.09347e-63
1.97571e-63
1.85768e-63
1.74067e-63
1.62579e-63
1.51397e-63
1.40594e-63
1.3023e-63
1.20348e-63
1.1098e-63
1.02148e-63
9.3861e-64
8.61233e-64
7.89309e-64
7.22745e-64
6.61407e-64
6.05126e-64
5.53711e-64
5.06954e-64
4.64639e-64
4.26546e-64
3.92456e-64
3.6216e-64
3.35455e-64
3.12153e-64
2.9208e-64
2.7508e-64
2.61014e-64
2.49764e-64
2.41231e-64
2.35337e-64
2.32024e-64
2.31258e-64
2.33023e-64
2.37324e-64
2.44187e-64
2.53659e-64
2.65802e-64
2.80698e-64
2.98446e-64
3.19157e-64
3.42956e-64
3.69979e-64
4.00367e-64
4.34267e-64
4.71824e-64
5.13179e-64
5.58462e-64
6.07788e-64
6.61246e-64
7.18897e-64
7.80758e-64
8.46799e-64
9.16929e-64
9.90988e-64
1.06873e-63
1.14982e-63
1.2338e-63
1.32012e-63
1.40807e-63
1.49683e-63
1.58541e-63
1.67265e-63
1.75727e-63
1.83779e-63
1.9126e-63
1.97994e-63
2.03791e-63
2.08452e-63
2.11769e-63
2.13531e-63
3.40172e-63
3.3737e-63
3.32097e-63
3.24685e-63
3.15464e-63
3.04749e-63
2.92842e-63
2.80021e-63
2.66543e-63
2.5264e-63
2.38519e-63
2.24361e-63
2.10322e-63
1.96534e-63
1.83109e-63
1.70134e-63
1.57681e-63
1.45803e-63
1.34539e-63
1.23913e-63
1.13939e-63
1.04622e-63
9.59562e-64
8.79325e-64
8.05348e-64
7.37433e-64
6.75355e-64
6.1887e-64
5.67722e-64
5.2165e-64
4.80398e-64
4.43715e-64
4.11362e-64
3.83116e-64
3.5877e-64
3.38139e-64
3.21058e-64
3.07385e-64
2.97004e-64
2.8982e-64
2.85766e-64
2.84799e-64
2.869e-64
2.92075e-64
3.00354e-64
3.11791e-64
3.26461e-64
3.44459e-64
3.65901e-64
3.9092e-64
4.19663e-64
4.52289e-64
4.88964e-64
5.29862e-64
5.75153e-64
6.25003e-64
6.79564e-64
7.38969e-64
8.03322e-64
8.7269e-64
9.47093e-64
1.02649e-63
1.11077e-63
1.19973e-63
1.29308e-63
1.39042e-63
1.4912e-63
1.59475e-63
1.70023e-63
1.80664e-63
1.9128e-63
2.01734e-63
2.11872e-63
2.21516e-63
2.30476e-63
2.38538e-63
2.45478e-63
2.51057e-63
2.55027e-63
2.57136e-63
4.09202e-63
4.05848e-63
3.99536e-63
3.90663e-63
3.79622e-63
3.66792e-63
3.52531e-63
3.37174e-63
3.21028e-63
3.0437e-63
2.87447e-63
2.70476e-63
2.53644e-63
2.37109e-63
2.21004e-63
2.05437e-63
1.9049e-63
1.7623e-63
1.62701e-63
1.49935e-63
1.37947e-63
1.26744e-63
1.16322e-63
1.06666e-63
9.77607e-64
8.95812e-64
8.21014e-64
7.52923e-64
6.91236e-64
6.35646e-64
5.85848e-64
5.41545e-64
5.02453e-64
4.68307e-64
4.38862e-64
4.13897e-64
3.93216e-64
3.7665e-64
3.6406e-64
3.55334e-64
3.50391e-64
3.4918e-64
3.51677e-64
3.5789e-64
3.67853e-64
3.81629e-64
3.99307e-64
4.20999e-64
4.46843e-64
4.76994e-64
5.11627e-64
5.50929e-64
5.95098e-64
6.44336e-64
6.98846e-64
7.58822e-64
8.24444e-64
8.95866e-64
9.7321e-64
1.05655e-63
1.14591e-63
1.24124e-63
1.3424e-63
1.44915e-63
1.56113e-63
1.67785e-63
1.79868e-63
1.92279e-63
2.04919e-63
2.17668e-63
2.30384e-63
2.42905e-63
2.55043e-63
2.66591e-63
2.77315e-63
2.86965e-63
2.95271e-63
3.01947e-63
3.06697e-63
3.09221e-63
4.9171e-63
4.87696e-63
4.80141e-63
4.69521e-63
4.56305e-63
4.40945e-63
4.23871e-63
4.05483e-63
3.86147e-63
3.66196e-63
3.45924e-63
3.25591e-63
3.05422e-63
2.85605e-63
2.663e-63
2.47634e-63
2.29709e-63
2.12603e-63
1.9637e-63
1.81048e-63
1.66656e-63
1.53202e-63
1.40681e-63
1.29078e-63
1.18372e-63
1.08536e-63
9.95377e-64
9.13432e-64
8.39167e-64
7.72217e-64
7.12219e-64
6.5882e-64
6.11685e-64
5.70496e-64
5.34963e-64
5.04823e-64
4.79842e-64
4.5982e-64
4.44591e-64
4.34021e-64
4.28014e-64
4.26507e-64
4.29472e-64
4.36918e-64
4.48885e-64
4.65447e-64
4.86708e-64
5.12803e-64
5.43893e-64
5.80162e-64
6.21817e-64
6.69079e-64
7.22184e-64
7.81369e-64
8.46874e-64
9.18929e-64
9.97745e-64
1.0835e-63
1.17635e-63
1.27637e-63
1.38358e-63
1.49792e-63
1.61922e-63
1.7472e-63
1.88142e-63
2.0213e-63
2.16606e-63
2.31473e-63
2.46611e-63
2.61878e-63
2.77103e-63
2.92092e-63
3.06621e-63
3.20441e-63
3.33276e-63
3.44823e-63
3.54761e-63
3.62747e-63
3.6843e-63
3.71449e-63
5.90347e-63
5.85544e-63
5.76502e-63
5.63792e-63
5.47975e-63
5.29591e-63
5.09154e-63
4.87141e-63
4.63992e-63
4.40103e-63
4.15829e-63
3.91478e-63
3.67319e-63
3.4358e-63
3.2045e-63
2.98082e-63
2.76598e-63
2.56091e-63
2.36627e-63
2.18251e-63
2.00988e-63
1.84845e-63
1.69817e-63
1.55888e-63
1.43032e-63
1.31217e-63
1.20406e-63
1.10557e-63
1.01629e-63
9.35771e-64
8.63593e-64
7.99333e-64
7.42593e-64
6.92994e-64
6.50191e-64
6.1387e-64
5.83754e-64
5.59603e-64
5.4122e-64
5.28445e-64
5.21162e-64
5.19297e-64
5.22817e-64
5.31729e-64
5.46083e-64
5.65965e-64
5.91498e-64
6.22842e-64
6.60187e-64
7.03753e-64
7.53784e-64
8.10544e-64
8.74309e-64
9.45363e-64
1.02399e-63
1.11046e-63
1.20502e-63
1.30789e-63
1.41924e-63
1.53916e-63
1.66769e-63
1.80473e-63
1.95009e-63
2.10342e-63
2.2642e-63
2.43173e-63
2.60508e-63
2.78309e-63
2.96433e-63
3.14707e-63
3.3293e-63
3.50868e-63
3.68255e-63
3.84791e-63
4.00146e-63
4.13961e-63
4.25849e-63
4.35403e-63
4.422e-63
4.45811e-63
7.08282e-63
7.02535e-63
6.91717e-63
6.76508e-63
6.5758e-63
6.35579e-63
6.11119e-63
5.84773e-63
5.57064e-63
5.28468e-63
4.99406e-63
4.70252e-63
4.41324e-63
4.12896e-63
3.85193e-63
3.584e-63
3.32662e-63
3.08091e-63
2.84766e-63
2.62741e-63
2.42045e-63
2.22689e-63
2.04667e-63
1.87959e-63
1.72534e-63
1.58355e-63
1.45378e-63
1.33553e-63
1.2283e-63
1.13158e-63
1.04486e-63
9.67623e-64
8.99409e-64
8.39764e-64
7.88276e-64
7.44572e-64
7.0832e-64
6.79236e-64
6.57082e-64
6.41669e-64
6.32859e-64
6.30563e-64
6.34739e-64
6.45398e-64
6.62596e-64
6.86435e-64
7.17064e-64
7.54669e-64
7.99479e-64
8.51752e-64
9.11779e-64
9.79872e-64
1.05636e-63
1.14158e-63
1.23587e-63
1.33955e-63
1.45291e-63
1.57622e-63
1.70966e-63
1.85336e-63
2.00733e-63
2.17149e-63
2.34558e-63
2.5292e-63
2.72171e-63
2.92228e-63
3.12979e-63
3.34285e-63
3.55976e-63
3.77844e-63
3.9965e-63
4.21113e-63
4.41914e-63
4.61696e-63
4.80065e-63
4.9659e-63
5.1081e-63
5.22236e-63
5.30366e-63
5.34685e-63
8.49309e-63
8.42433e-63
8.29488e-63
8.11291e-63
7.88642e-63
7.62315e-63
7.33046e-63
7.01516e-63
6.68354e-63
6.34128e-63
5.99344e-63
5.64445e-63
5.29815e-63
4.9578e-63
4.6261e-63
4.30526e-63
3.99703e-63
3.70273e-63
3.42333e-63
3.15946e-63
2.91148e-63
2.67952e-63
2.4635e-63
2.26321e-63
2.07827e-63
1.90823e-63
1.75257e-63
1.61071e-63
1.48204e-63
1.36596e-63
1.26185e-63
1.16912e-63
1.0872e-63
1.01555e-63
9.53684e-64
9.01156e-64
8.57572e-64
8.2259e-64
7.95929e-64
7.77362e-64
7.66723e-64
7.63905e-64
7.68861e-64
7.816e-64
8.02189e-64
8.3075e-64
8.67458e-64
9.12537e-64
9.66254e-64
1.02892e-63
1.10088e-63
1.18251e-63
1.27419e-63
1.37633e-63
1.48932e-63
1.61355e-63
1.74937e-63
1.89708e-63
2.05691e-63
2.229e-63
2.41339e-63
2.60994e-63
2.81836e-63
3.03816e-63
3.26859e-63
3.50863e-63
3.75697e-63
4.01192e-63
4.27145e-63
4.5331e-63
4.79397e-63
5.05073e-63
5.29956e-63
5.53619e-63
5.7559e-63
5.95355e-63
6.12361e-63
6.26027e-63
6.35749e-63
6.40914e-63
1.01796e-62
1.00973e-62
9.94248e-63
9.72475e-63
9.45376e-63
9.13876e-63
8.78853e-63
8.41125e-63
8.01442e-63
7.60483e-63
7.18854e-63
6.77086e-63
6.35637e-63
5.94897e-63
5.5519e-63
5.16781e-63
4.79877e-63
4.44638e-63
4.11179e-63
3.79577e-63
3.49875e-63
3.22088e-63
2.96208e-63
2.72208e-63
2.50045e-63
2.29665e-63
2.11005e-63
1.93997e-63
1.78568e-63
1.64646e-63
1.52158e-63
1.41032e-63
1.31202e-63
1.22602e-63
1.15175e-63
1.08868e-63
1.03633e-63
9.943e-64
9.62249e-64
9.39908e-64
9.27079e-64
9.23634e-64
9.29515e-64
9.44732e-64
9.69367e-64
1.00356e-63
1.04753e-63
1.10153e-63
1.16588e-63
1.24096e-63
1.32717e-63
1.42495e-63
1.53478e-63
1.65712e-63
1.79246e-63
1.94124e-63
2.10388e-63
2.28074e-63
2.47211e-63
2.67813e-63
2.89885e-63
3.13411e-63
3.38356e-63
3.64659e-63
3.92233e-63
4.20956e-63
4.50668e-63
4.81171e-63
5.12219e-63
5.43518e-63
5.74724e-63
6.05435e-63
6.35197e-63
6.63499e-63
6.89776e-63
7.13414e-63
7.33753e-63
7.50096e-63
7.61722e-63
7.67899e-63
1.21966e-62
1.20982e-62
1.1913e-62
1.16525e-62
1.13282e-62
1.09514e-62
1.05323e-62
1.00809e-62
9.60606e-63
9.11596e-63
8.61781e-63
8.11797e-63
7.62193e-63
7.13435e-63
6.6591e-63
6.19936e-63
5.75761e-63
5.33576e-63
4.93518e-63
4.55681e-63
4.20115e-63
3.86839e-63
3.55844e-63
3.27097e-63
3.00548e-63
2.76131e-63
2.53773e-63
2.33391e-63
2.149e-63
1.98212e-63
1.8324e-63
1.699e-63
1.58111e-63
1.47797e-63
1.38887e-63
1.31319e-63
1.25037e-63
1.19991e-63
1.16141e-63
1.13455e-63
1.1191e-63
1.1149e-63
1.12188e-63
1.14006e-63
1.16952e-63
1.21044e-63
1.26307e-63
1.32772e-63
1.40478e-63
1.49468e-63
1.59791e-63
1.715e-63
1.8465e-63
1.99298e-63
2.15501e-63
2.33312e-63
2.52781e-63
2.73951e-63
2.96855e-63
3.21512e-63
3.47926e-63
3.76078e-63
4.05926e-63
4.37397e-63
4.70387e-63
5.04749e-63
5.40293e-63
5.76781e-63
6.13919e-63
6.51356e-63
6.8868e-63
7.25411e-63
7.61006e-63
7.94854e-63
8.2628e-63
8.54548e-63
8.7887e-63
8.98413e-63
9.12316e-63
9.19702e-63
1.46091e-62
1.44913e-62
1.42697e-62
1.39581e-62
1.35702e-62
1.31193e-62
1.26179e-62
1.20778e-62
1.15097e-62
1.09233e-62
1.03272e-62
9.72911e-63
9.13553e-63
8.55205e-63
7.98332e-63
7.4331e-63
6.90439e-63
6.39947e-63
5.91999e-63
5.46705e-63
5.04127e-63
4.64288e-63
4.27176e-63
3.92754e-63
3.6096e-63
3.31717e-63
3.04937e-63
2.80521e-63
2.58368e-63
2.38373e-63
2.20433e-63
2.04445e-63
1.90315e-63
1.77951e-63
1.67269e-63
1.58194e-63
1.50658e-63
1.44604e-63
1.39983e-63
1.36758e-63
1.34898e-63
1.34387e-63
1.35216e-63
1.37386e-63
1.40909e-63
1.45804e-63
1.52102e-63
1.59839e-63
1.69062e-63
1.79823e-63
1.92179e-63
2.06194e-63
2.21934e-63
2.39467e-63
2.58859e-63
2.80175e-63
3.03474e-63
3.28808e-63
3.56215e-63
3.85718e-63
4.1732e-63
4.51001e-63
4.86709e-63
5.24358e-63
5.63821e-63
6.04924e-63
6.47439e-63
6.91082e-63
7.35501e-63
7.80276e-63
8.24914e-63
8.68842e-63
9.1141e-63
9.51888e-63
9.89468e-63
1.02327e-62
1.05236e-62
1.07573e-62
1.09235e-62
1.10118e-62
1.74945e-62
1.73537e-62
1.70885e-62
1.67157e-62
1.62517e-62
1.57122e-62
1.51124e-62
1.44662e-62
1.37865e-62
1.30849e-62
1.23717e-62
1.16561e-62
1.09459e-62
1.02477e-62
9.56714e-63
8.90872e-63
8.27601e-63
7.67174e-63
7.09789e-63
6.55577e-63
6.04614e-63
5.56926e-63
5.125e-63
4.7129e-63
4.33224e-63
3.98211e-63
3.66143e-63
3.36904e-63
3.10373e-63
2.86424e-63
2.64933e-63
2.45781e-63
2.28851e-63
2.14035e-63
2.01234e-63
1.90356e-63
1.81322e-63
1.74063e-63
1.6852e-63
1.64648e-63
1.62413e-63
1.61792e-63
1.62776e-63
1.65367e-63
1.69578e-63
1.75432e-63
1.82966e-63
1.92223e-63
2.03259e-63
2.16135e-63
2.30922e-63
2.47693e-63
2.66527e-63
2.87506e-63
3.1071e-63
3.36215e-63
3.64092e-63
3.94402e-63
4.2719e-63
4.62485e-63
5.0029e-63
5.4058e-63
5.83293e-63
6.28327e-63
6.75528e-63
7.24689e-63
7.75538e-63
8.27733e-63
8.80856e-63
9.34404e-63
9.87786e-63
1.04032e-62
1.09122e-62
1.13963e-62
1.18457e-62
1.22499e-62
1.25977e-62
1.28771e-62
1.30759e-62
1.31815e-62
2.09459e-62
2.07774e-62
2.04602e-62
2.00142e-62
1.9459e-62
1.88137e-62
1.80961e-62
1.7323e-62
1.65098e-62
1.56704e-62
1.48172e-62
1.3961e-62
1.31112e-62
1.22758e-62
1.14615e-62
1.06737e-62
9.91659e-63
9.1935e-63
8.50678e-63
7.85801e-63
7.24809e-63
6.67734e-63
6.1456e-63
5.65233e-63
5.19667e-63
4.77752e-63
4.39361e-63
4.04355e-63
3.72587e-63
3.4391e-63
3.18174e-63
2.95237e-63
2.74959e-63
2.57212e-63
2.41876e-63
2.28843e-63
2.18017e-63
2.09316e-63
2.0267e-63
1.98024e-63
1.95338e-63
1.94586e-63
1.95756e-63
1.98849e-63
2.03881e-63
2.10881e-63
2.19891e-63
2.30964e-63
2.44166e-63
2.59571e-63
2.7726e-63
2.97325e-63
3.19858e-63
3.44956e-63
3.72716e-63
4.03227e-63
4.36576e-63
4.72833e-63
5.12055e-63
5.54273e-63
5.99493e-63
6.47683e-63
6.9877e-63
7.52631e-63
8.09083e-63
8.67877e-63
9.28689e-63
9.9111e-63
1.05464e-62
1.11867e-62
1.18251e-62
1.24533e-62
1.3062e-62
1.36408e-62
1.41782e-62
1.46616e-62
1.50774e-62
1.54116e-62
1.56493e-62
1.57756e-62
2.50741e-62
2.48726e-62
2.44931e-62
2.39595e-62
2.32954e-62
2.25234e-62
2.1665e-62
2.07401e-62
1.97673e-62
1.8763e-62
1.77422e-62
1.67179e-62
1.57012e-62
1.47017e-62
1.37275e-62
1.27848e-62
1.18789e-62
1.10137e-62
1.0192e-62
9.41566e-63
8.68578e-63
8.00276e-63
7.36641e-63
6.77606e-63
6.2307e-63
5.72901e-63
5.26948e-63
4.85043e-63
4.47014e-63
4.12682e-63
3.81869e-63
3.54405e-63
3.30124e-63
3.08871e-63
2.90504e-63
2.74893e-63
2.61923e-63
2.51497e-63
2.43531e-63
2.3796e-63
2.34735e-63
2.33825e-63
2.35215e-63
2.38907e-63
2.4492e-63
2.53288e-63
2.64063e-63
2.77306e-63
2.93097e-63
3.11522e-63
3.32682e-63
3.56683e-63
3.83637e-63
4.13659e-63
4.46863e-63
4.83359e-63
5.23248e-63
5.66615e-63
6.13526e-63
6.64021e-63
7.18105e-63
7.75739e-63
8.36838e-63
9.01251e-63
9.68763e-63
1.03907e-62
1.1118e-62
1.18644e-62
1.26241e-62
1.33899e-62
1.41532e-62
1.49044e-62
1.56323e-62
1.63244e-62
1.6967e-62
1.7545e-62
1.80422e-62
1.84418e-62
1.8726e-62
1.8877e-62
3.00122e-62
2.97711e-62
2.93171e-62
2.86788e-62
2.78844e-62
2.69608e-62
2.59338e-62
2.48275e-62
2.36636e-62
2.24622e-62
2.1241e-62
2.00155e-62
1.87992e-62
1.76035e-62
1.64378e-62
1.531e-62
1.42262e-62
1.31909e-62
1.22077e-62
1.12788e-62
1.04055e-62
9.58819e-63
8.8267e-63
8.12024e-63
7.46759e-63
6.86719e-63
6.31721e-63
5.81567e-63
5.36048e-63
4.94953e-63
4.58068e-63
4.2519e-63
3.9612e-63
3.70675e-63
3.48682e-63
3.29987e-63
3.14454e-63
3.01964e-63
2.9242e-63
2.85741e-63
2.8187e-63
2.80769e-63
2.82421e-63
2.86828e-63
2.94013e-63
3.04017e-63
3.16899e-63
3.32736e-63
3.5162e-63
3.73657e-63
3.98964e-63
4.2767e-63
4.59907e-63
4.95815e-63
5.35528e-63
5.79178e-63
6.26885e-63
6.78751e-63
7.34856e-63
7.95245e-63
8.59924e-63
9.2885e-63
1.00192e-62
1.07895e-62
1.15968e-62
1.24376e-62
1.33072e-62
1.41999e-62
1.51083e-62
1.6024e-62
1.69367e-62
1.7835e-62
1.87054e-62
1.9533e-62
2.03013e-62
2.09924e-62
2.1587e-62
2.20647e-62
2.24046e-62
2.25851e-62
3.5919e-62
3.56305e-62
3.50874e-62
3.43239e-62
3.33735e-62
3.22687e-62
3.10402e-62
2.97166e-62
2.83243e-62
2.68871e-62
2.54261e-62
2.396e-62
2.25049e-62
2.10744e-62
1.96798e-62
1.83305e-62
1.70338e-62
1.57953e-62
1.46189e-62
1.35075e-62
1.24626e-62
1.14846e-62
1.05735e-62
9.72813e-63
8.94716e-63
8.22868e-63
7.57052e-63
6.9703e-63
6.42554e-63
5.9337e-63
5.49223e-63
5.09869e-63
4.75073e-63
4.44611e-63
4.18282e-63
3.95899e-63
3.77299e-63
3.62341e-63
3.50906e-63
3.42902e-63
3.38257e-63
3.36928e-63
3.38892e-63
3.44153e-63
3.52738e-63
3.64696e-63
3.80097e-63
3.99033e-63
4.21614e-63
4.47967e-63
4.78232e-63
5.12561e-63
5.51115e-63
5.94058e-63
6.41552e-63
6.93754e-63
7.50807e-63
8.12834e-63
8.79929e-63
9.52146e-63
1.02949e-62
1.11192e-62
1.19929e-62
1.29141e-62
1.38795e-62
1.48849e-62
1.59248e-62
1.69922e-62
1.80784e-62
1.91733e-62
2.02648e-62
2.13388e-62
2.23796e-62
2.33692e-62
2.42879e-62
2.51142e-62
2.58251e-62
2.63964e-62
2.68027e-62
2.70186e-62
4.29846e-62
4.26395e-62
4.19899e-62
4.10765e-62
3.99396e-62
3.86179e-62
3.71482e-62
3.55649e-62
3.38993e-62
3.218e-62
3.04322e-62
2.86783e-62
2.69375e-62
2.52262e-62
2.35578e-62
2.19436e-62
2.03923e-62
1.89105e-62
1.75031e-62
1.61734e-62
1.49232e-62
1.37531e-62
1.26629e-62
1.16515e-62
1.0717e-62
9.8573e-63
9.06974e-63
8.3515e-63
7.6996e-63
7.111e-63
6.58267e-63
6.11168e-63
5.6952e-63
5.3306e-63
5.01543e-63
4.74748e-63
4.52479e-63
4.34568e-63
4.20872e-63
4.11281e-63
4.0571e-63
4.04105e-63
4.06441e-63
4.12722e-63
4.22979e-63
4.37271e-63
4.55683e-63
4.78323e-63
5.05324e-63
5.36835e-63
5.73026e-63
6.14078e-63
6.60182e-63
7.11535e-63
7.68331e-63
8.30757e-63
8.98984e-63
9.73158e-63
1.05339e-62
1.13975e-62
1.23224e-62
1.33081e-62
1.43529e-62
1.54544e-62
1.66088e-62
1.7811e-62
1.90545e-62
2.03308e-62
2.16297e-62
2.29389e-62
2.4244e-62
2.55282e-62
2.67726e-62
2.79559e-62
2.90543e-62
3.00424e-62
3.08925e-62
3.15755e-62
3.20614e-62
3.23195e-62
5.14364e-62
5.10236e-62
5.02465e-62
4.91539e-62
4.77938e-62
4.62128e-62
4.44547e-62
4.25606e-62
4.05681e-62
3.85113e-62
3.64205e-62
3.43223e-62
3.22398e-62
3.01925e-62
2.81967e-62
2.62655e-62
2.44096e-62
2.26368e-62
2.09531e-62
1.93623e-62
1.78665e-62
1.64667e-62
1.51623e-62
1.39522e-62
1.28341e-62
1.18055e-62
1.08631e-62
1.00037e-62
9.22365e-63
8.51931e-63
7.88708e-63
7.32344e-63
6.82502e-63
6.38866e-63
6.01143e-63
5.6907e-63
5.42412e-63
5.20967e-63
5.04567e-63
4.93076e-63
4.86395e-63
4.84459e-63
4.87238e-63
4.94736e-63
5.06991e-63
5.24073e-63
5.46082e-63
5.7315e-63
6.05433e-63
6.43111e-63
6.86385e-63
7.35474e-63
7.90605e-63
8.52012e-63
9.19928e-63
9.94577e-63
1.07616e-62
1.16486e-62
1.2608e-62
1.36407e-62
1.47467e-62
1.59253e-62
1.71746e-62
1.84917e-62
1.98721e-62
2.13097e-62
2.27965e-62
2.43226e-62
2.58757e-62