/*--------------------------------*- C++ -*----------------------------------*\
  =========                 |
  \\      /  F ield         | OpenFOAM: The Open Source CFD Toolbox
   \\    /   O peration     | Website:  https://openfoam.org
    \\  /    A nd           | Version:  11
     \\/     M anipulation  |
\*---------------------------------------------------------------------------*/
FoamFile
{
    format      ascii;
    class       volScalarField;
    location    "624";
    object      p;
}
// * * * * * * * * * * * * * * * * * * * * * * * * * * * * * * * * * * * * * //

dimensions      [0 2 -2 0 0 0 0];

internalField   nonuniform List<scalar> 
427520
(
5.44346
5.39166
5.35738
5.33878
5.32687
5.31835
5.31216
5.30761
5.30421
5.30159
5.29954
5.2979
5.29656
5.29545
5.29452
5.29373
5.29305
5.29246
5.29194
5.29149
5.29109
5.29074
5.29043
5.29015
5.2899
5.28968
5.28948
5.28931
5.28915
5.28901
5.28889
5.28879
5.28869
5.28861
5.28855
5.28849
5.28845
5.28842
5.2884
5.28839
5.28839
5.2884
5.28842
5.28845
5.28849
5.28855
5.28861
5.28869
5.28879
5.28889
5.28901
5.28915
5.28931
5.28948
5.28968
5.2899
5.29015
5.29043
5.29074
5.29109
5.29149
5.29194
5.29246
5.29305
5.29373
5.29452
5.29545
5.29656
5.2979
5.29954
5.30159
5.30421
5.30761
5.31216
5.31835
5.32687
5.33878
5.35738
5.39166
5.44346
5.34514
5.33913
5.33213
5.32553
5.31968
5.31467
5.3105
5.30707
5.30427
5.30196
5.30005
5.29847
5.29713
5.296
5.29503
5.29421
5.29349
5.29286
5.29231
5.29183
5.29141
5.29103
5.2907
5.2904
5.29013
5.2899
5.28969
5.2895
5.28933
5.28919
5.28906
5.28894
5.28884
5.28876
5.28869
5.28863
5.28859
5.28855
5.28853
5.28852
5.28852
5.28853
5.28855
5.28859
5.28863
5.28869
5.28876
5.28884
5.28894
5.28906
5.28919
5.28933
5.2895
5.28969
5.2899
5.29013
5.2904
5.2907
5.29103
5.29141
5.29183
5.29231
5.29286
5.29349
5.29421
5.29503
5.296
5.29713
5.29847
5.30005
5.30196
5.30427
5.30707
5.3105
5.31467
5.31968
5.32553
5.33213
5.33913
5.34514
5.31518
5.31694
5.31727
5.31554
5.31296
5.31024
5.30765
5.30529
5.30318
5.30134
5.29973
5.29834
5.29713
5.29608
5.29516
5.29436
5.29366
5.29304
5.29249
5.29201
5.29158
5.2912
5.29086
5.29055
5.29028
5.29004
5.28982
5.28963
5.28946
5.2893
5.28917
5.28905
5.28895
5.28887
5.28879
5.28873
5.28868
5.28865
5.28863
5.28861
5.28861
5.28863
5.28865
5.28868
5.28873
5.28879
5.28887
5.28895
5.28905
5.28917
5.2893
5.28946
5.28963
5.28982
5.29004
5.29028
5.29055
5.29086
5.2912
5.29158
5.29201
5.29249
5.29304
5.29366
5.29436
5.29516
5.29608
5.29713
5.29834
5.29973
5.30134
5.30318
5.30529
5.30765
5.31024
5.31296
5.31554
5.31727
5.31694
5.31518
5.30434
5.30658
5.30801
5.30791
5.30697
5.30566
5.3042
5.30272
5.30129
5.29995
5.29872
5.29761
5.29661
5.29571
5.29491
5.29419
5.29355
5.29298
5.29246
5.292
5.29159
5.29122
5.29089
5.2906
5.29033
5.29009
5.28988
5.28968
5.28951
5.28936
5.28923
5.28911
5.28901
5.28892
5.28885
5.28879
5.28874
5.28871
5.28868
5.28867
5.28867
5.28868
5.28871
5.28874
5.28879
5.28885
5.28892
5.28901
5.28911
5.28923
5.28936
5.28951
5.28968
5.28988
5.29009
5.29033
5.2906
5.29089
5.29122
5.29159
5.292
5.29246
5.29298
5.29355
5.29419
5.29491
5.29571
5.29661
5.29761
5.29872
5.29995
5.30129
5.30272
5.3042
5.30566
5.30697
5.30791
5.30801
5.30658
5.30434
5.29839
5.30029
5.30177
5.3023
5.30218
5.30169
5.30097
5.30012
5.29922
5.29831
5.29743
5.29659
5.29581
5.29508
5.29442
5.2938
5.29325
5.29274
5.29228
5.29186
5.29149
5.29114
5.29083
5.29055
5.2903
5.29007
5.28987
5.28968
5.28952
5.28937
5.28924
5.28912
5.28903
5.28894
5.28887
5.28881
5.28876
5.28873
5.2887
5.28869
5.28869
5.2887
5.28873
5.28876
5.28881
5.28887
5.28894
5.28903
5.28912
5.28924
5.28937
5.28952
5.28968
5.28987
5.29007
5.2903
5.29055
5.29083
5.29114
5.29149
5.29186
5.29228
5.29274
5.29325
5.2938
5.29442
5.29508
5.29581
5.29659
5.29743
5.29831
5.29922
5.30012
5.30097
5.30169
5.30218
5.3023
5.30177
5.30029
5.29839
5.29488
5.29635
5.29763
5.29832
5.29855
5.29848
5.2982
5.29776
5.29723
5.29665
5.29605
5.29545
5.29486
5.2943
5.29377
5.29327
5.2928
5.29237
5.29197
5.29161
5.29127
5.29097
5.29068
5.29043
5.2902
5.28998
5.28979
5.28962
5.28946
5.28933
5.2892
5.28909
5.289
5.28892
5.28885
5.28879
5.28875
5.28871
5.28869
5.28868
5.28868
5.28869
5.28871
5.28875
5.28879
5.28885
5.28892
5.289
5.28909
5.2892
5.28933
5.28946
5.28962
5.28979
5.28998
5.2902
5.29043
5.29068
5.29097
5.29127
5.29161
5.29197
5.29237
5.2928
5.29327
5.29377
5.2943
5.29486
5.29545
5.29605
5.29665
5.29723
5.29776
5.2982
5.29848
5.29855
5.29832
5.29763
5.29635
5.29488
5.29261
5.29373
5.29477
5.29544
5.2958
5.29593
5.29589
5.29571
5.29542
5.29508
5.29469
5.29427
5.29385
5.29343
5.29303
5.29263
5.29226
5.29191
5.29157
5.29126
5.29097
5.29071
5.29046
5.29023
5.29002
5.28983
5.28966
5.2895
5.28936
5.28923
5.28912
5.28902
5.28893
5.28885
5.28879
5.28873
5.28869
5.28866
5.28864
5.28863
5.28863
5.28864
5.28866
5.28869
5.28873
5.28879
5.28885
5.28893
5.28902
5.28912
5.28923
5.28936
5.2895
5.28966
5.28983
5.29002
5.29023
5.29046
5.29071
5.29097
5.29126
5.29157
5.29191
5.29226
5.29263
5.29303
5.29343
5.29385
5.29427
5.29469
5.29508
5.29542
5.29571
5.29589
5.29593
5.2958
5.29544
5.29477
5.29373
5.29261
5.291
5.29186
5.2927
5.2933
5.29368
5.29391
5.29399
5.29396
5.29383
5.29365
5.29341
5.29314
5.29285
5.29255
5.29225
5.29195
5.29166
5.29138
5.29111
5.29085
5.29061
5.29038
5.29017
5.28998
5.2898
5.28963
5.28947
5.28933
5.28921
5.28909
5.28899
5.2889
5.28882
5.28875
5.28869
5.28864
5.2886
5.28857
5.28855
5.28855
5.28855
5.28855
5.28857
5.2886
5.28864
5.28869
5.28875
5.28882
5.2889
5.28899
5.28909
5.28921
5.28933
5.28947
5.28963
5.2898
5.28998
5.29017
5.29038
5.29061
5.29085
5.29111
5.29138
5.29166
5.29195
5.29225
5.29255
5.29285
5.29314
5.29341
5.29365
5.29383
5.29396
5.29399
5.29391
5.29368
5.2933
5.2927
5.29186
5.291
5.28979
5.29047
5.29115
5.29166
5.29203
5.29228
5.29242
5.29248
5.29245
5.29237
5.29224
5.29208
5.29189
5.29168
5.29147
5.29125
5.29103
5.29081
5.2906
5.29039
5.2902
5.29001
5.28984
5.28967
5.28952
5.28938
5.28924
5.28912
5.28901
5.28891
5.28882
5.28874
5.28867
5.28861
5.28856
5.28851
5.28848
5.28845
5.28844
5.28843
5.28843
5.28844
5.28845
5.28848
5.28851
5.28856
5.28861
5.28867
5.28874
5.28882
5.28891
5.28901
5.28912
5.28924
5.28938
5.28952
5.28967
5.28984
5.29001
5.2902
5.29039
5.2906
5.29081
5.29103
5.29125
5.29147
5.29168
5.29189
5.29208
5.29224
5.29237
5.29245
5.29248
5.29242
5.29228
5.29203
5.29166
5.29115
5.29047
5.28979
5.28883
5.28937
5.28993
5.29037
5.29071
5.29096
5.29113
5.29123
5.29126
5.29125
5.29119
5.2911
5.29099
5.29086
5.29071
5.29055
5.29039
5.29023
5.29007
5.28991
5.28976
5.28961
5.28947
5.28933
5.28921
5.28909
5.28898
5.28888
5.28878
5.2887
5.28862
5.28855
5.28849
5.28843
5.28839
5.28835
5.28832
5.2883
5.28828
5.28828
5.28828
5.28828
5.2883
5.28832
5.28835
5.28839
5.28843
5.28849
5.28855
5.28862
5.2887
5.28878
5.28888
5.28898
5.28909
5.28921
5.28933
5.28947
5.28961
5.28976
5.28991
5.29007
5.29023
5.29039
5.29055
5.29071
5.29086
5.29099
5.2911
5.29119
5.29125
5.29126
5.29123
5.29113
5.29096
5.29071
5.29037
5.28993
5.28937
5.28883
5.28805
5.28849
5.28895
5.28933
5.28963
5.28986
5.29004
5.29016
5.29023
5.29026
5.29026
5.29022
5.29016
5.29008
5.28998
5.28988
5.28977
5.28965
5.28953
5.28941
5.2893
5.28918
5.28907
5.28897
5.28886
5.28877
5.28868
5.2886
5.28852
5.28845
5.28838
5.28832
5.28827
5.28823
5.28819
5.28816
5.28813
5.28811
5.2881
5.28809
5.28809
5.2881
5.28811
5.28813
5.28816
5.28819
5.28823
5.28827
5.28832
5.28838
5.28845
5.28852
5.2886
5.28868
5.28877
5.28886
5.28897
5.28907
5.28918
5.2893
5.28941
5.28953
5.28965
5.28977
5.28988
5.28998
5.29008
5.29016
5.29022
5.29026
5.29026
5.29023
5.29016
5.29004
5.28986
5.28963
5.28933
5.28895
5.28849
5.28805
5.2874
5.28776
5.28815
5.28847
5.28873
5.28895
5.28912
5.28925
5.28934
5.28939
5.28942
5.28942
5.28939
5.28935
5.2893
5.28924
5.28916
5.28908
5.289
5.28892
5.28883
5.28874
5.28866
5.28858
5.2885
5.28843
5.28836
5.28829
5.28823
5.28817
5.28812
5.28807
5.28803
5.28799
5.28796
5.28794
5.28792
5.2879
5.28789
5.28788
5.28788
5.28789
5.2879
5.28792
5.28794
5.28796
5.28799
5.28803
5.28807
5.28812
5.28817
5.28823
5.28829
5.28836
5.28843
5.2885
5.28858
5.28866
5.28874
5.28883
5.28892
5.289
5.28908
5.28916
5.28924
5.2893
5.28935
5.28939
5.28942
5.28942
5.28939
5.28934
5.28925
5.28912
5.28895
5.28873
5.28847
5.28815
5.28776
5.2874
5.28684
5.28714
5.28747
5.28774
5.28797
5.28817
5.28833
5.28846
5.28856
5.28862
5.28867
5.28869
5.2887
5.28868
5.28866
5.28862
5.28858
5.28853
5.28848
5.28842
5.28836
5.2883
5.28824
5.28818
5.28813
5.28807
5.28802
5.28797
5.28792
5.28788
5.28783
5.2878
5.28777
5.28774
5.28771
5.28769
5.28767
5.28766
5.28765
5.28765
5.28765
5.28765
5.28766
5.28767
5.28769
5.28771
5.28774
5.28777
5.2878
5.28783
5.28788
5.28792
5.28797
5.28802
5.28807
5.28813
5.28818
5.28824
5.2883
5.28836
5.28842
5.28848
5.28853
5.28858
5.28862
5.28866
5.28868
5.2887
5.28869
5.28867
5.28862
5.28856
5.28846
5.28833
5.28817
5.28797
5.28774
5.28747
5.28714
5.28684
5.28635
5.28661
5.28688
5.28711
5.28732
5.28749
5.28764
5.28777
5.28786
5.28794
5.288
5.28803
5.28806
5.28806
5.28806
5.28805
5.28803
5.288
5.28797
5.28794
5.2879
5.28786
5.28782
5.28778
5.28774
5.2877
5.28766
5.28763
5.28759
5.28756
5.28753
5.2875
5.28748
5.28746
5.28744
5.28742
5.28741
5.2874
5.2874
5.28739
5.28739
5.2874
5.2874
5.28741
5.28742
5.28744
5.28746
5.28748
5.2875
5.28753
5.28756
5.28759
5.28763
5.28766
5.2877
5.28774
5.28778
5.28782
5.28786
5.2879
5.28794
5.28797
5.288
5.28803
5.28805
5.28806
5.28806
5.28806
5.28803
5.288
5.28794
5.28786
5.28777
5.28764
5.28749
5.28732
5.28711
5.28688
5.28661
5.28635
5.28591
5.28613
5.28636
5.28657
5.28674
5.2869
5.28704
5.28715
5.28725
5.28733
5.28739
5.28744
5.28747
5.28749
5.2875
5.28751
5.28751
5.2875
5.28748
5.28747
5.28745
5.28742
5.2874
5.28738
5.28735
5.28733
5.2873
5.28728
5.28726
5.28723
5.28721
5.2872
5.28718
5.28716
5.28715
5.28714
5.28713
5.28713
5.28712
5.28712
5.28712
5.28712
5.28713
5.28713
5.28714
5.28715
5.28716
5.28718
5.2872
5.28721
5.28723
5.28726
5.28728
5.2873
5.28733
5.28735
5.28738
5.2874
5.28742
5.28745
5.28747
5.28748
5.2875
5.28751
5.28751
5.2875
5.28749
5.28747
5.28744
5.28739
5.28733
5.28725
5.28715
5.28704
5.2869
5.28674
5.28657
5.28636
5.28613
5.28591
5.28552
5.2857
5.2859
5.28608
5.28623
5.28637
5.2865
5.2866
5.2867
5.28677
5.28684
5.28689
5.28693
5.28696
5.28698
5.287
5.28701
5.28701
5.28701
5.28701
5.28701
5.287
5.28699
5.28697
5.28696
5.28695
5.28694
5.28692
5.28691
5.2869
5.28689
5.28688
5.28687
5.28686
5.28685
5.28684
5.28684
5.28683
5.28683
5.28683
5.28683
5.28683
5.28683
5.28684
5.28684
5.28685
5.28686
5.28687
5.28688
5.28689
5.2869
5.28691
5.28692
5.28694
5.28695
5.28696
5.28697
5.28699
5.287
5.28701
5.28701
5.28701
5.28701
5.28701
5.287
5.28698
5.28696
5.28693
5.28689
5.28684
5.28677
5.2867
5.2866
5.2865
5.28637
5.28623
5.28608
5.2859
5.2857
5.28552
5.28515
5.28531
5.28549
5.28564
5.28578
5.2859
5.28601
5.28611
5.28619
5.28627
5.28633
5.28639
5.28643
5.28647
5.2865
5.28652
5.28654
5.28656
5.28657
5.28657
5.28658
5.28658
5.28658
5.28658
5.28658
5.28657
5.28657
5.28656
5.28656
5.28656
5.28655
5.28655
5.28654
5.28654
5.28653
5.28653
5.28653
5.28653
5.28653
5.28653
5.28653
5.28653
5.28653
5.28653
5.28653
5.28653
5.28654
5.28654
5.28655
5.28655
5.28656
5.28656
5.28656
5.28657
5.28657
5.28658
5.28658
5.28658
5.28658
5.28658
5.28657
5.28657
5.28656
5.28654
5.28652
5.2865
5.28647
5.28643
5.28639
5.28633
5.28627
5.28619
5.28611
5.28601
5.2859
5.28578
5.28564
5.28549
5.28531
5.28515
5.28482
5.28495
5.2851
5.28524
5.28536
5.28547
5.28557
5.28566
5.28574
5.28581
5.28587
5.28592
5.28597
5.28601
5.28604
5.28607
5.2861
5.28612
5.28614
5.28615
5.28616
5.28617
5.28618
5.28619
5.28619
5.2862
5.2862
5.28621
5.28621
5.28621
5.28621
5.28621
5.28621
5.28621
5.28621
5.28621
5.28621
5.28621
5.28621
5.28621
5.28621
5.28621
5.28621
5.28621
5.28621
5.28621
5.28621
5.28621
5.28621
5.28621
5.28621
5.28621
5.28621
5.2862
5.2862
5.28619
5.28619
5.28618
5.28617
5.28616
5.28615
5.28614
5.28612
5.2861
5.28607
5.28604
5.28601
5.28597
5.28592
5.28587
5.28581
5.28574
5.28566
5.28557
5.28547
5.28536
5.28524
5.2851
5.28495
5.28482
5.2845
5.28462
5.28475
5.28487
5.28497
5.28507
5.28516
5.28524
5.28531
5.28538
5.28544
5.28549
5.28554
5.28558
5.28561
5.28565
5.28568
5.2857
5.28572
5.28574
5.28576
5.28578
5.28579
5.28581
5.28582
5.28583
5.28584
5.28585
5.28586
5.28586
5.28587
5.28587
5.28588
5.28588
5.28589
5.28589
5.28589
5.28589
5.28589
5.28589
5.28589
5.28589
5.28589
5.28589
5.28589
5.28589
5.28588
5.28588
5.28587
5.28587
5.28586
5.28586
5.28585
5.28584
5.28583
5.28582
5.28581
5.28579
5.28578
5.28576
5.28574
5.28572
5.2857
5.28568
5.28565
5.28561
5.28558
5.28554
5.28549
5.28544
5.28538
5.28531
5.28524
5.28516
5.28507
5.28497
5.28487
5.28475
5.28462
5.2845
5.2842
5.2843
5.28442
5.28452
5.28461
5.2847
5.28478
5.28485
5.28492
5.28498
5.28503
5.28508
5.28513
5.28517
5.28521
5.28524
5.28527
5.2853
5.28533
5.28535
5.28538
5.2854
5.28542
5.28543
5.28545
5.28547
5.28548
5.28549
5.2855
5.28552
5.28553
5.28553
5.28554
5.28555
5.28555
5.28556
5.28556
5.28557
5.28557
5.28557
5.28557
5.28557
5.28557
5.28556
5.28556
5.28555
5.28555
5.28554
5.28553
5.28553
5.28552
5.2855
5.28549
5.28548
5.28547
5.28545
5.28543
5.28542
5.2854
5.28538
5.28535
5.28533
5.2853
5.28527
5.28524
5.28521
5.28517
5.28513
5.28508
5.28503
5.28498
5.28492
5.28485
5.28478
5.2847
5.28461
5.28452
5.28442
5.2843
5.2842
5.28391
5.284
5.2841
5.28419
5.28427
5.28435
5.28442
5.28449
5.28455
5.2846
5.28466
5.2847
5.28475
5.28479
5.28482
5.28486
5.28489
5.28492
5.28495
5.28498
5.285
5.28503
5.28505
5.28507
5.28509
5.28511
5.28513
5.28514
5.28516
5.28517
5.28518
5.2852
5.28521
5.28521
5.28522
5.28523
5.28523
5.28524
5.28524
5.28524
5.28524
5.28524
5.28524
5.28523
5.28523
5.28522
5.28521
5.28521
5.2852
5.28518
5.28517
5.28516
5.28514
5.28513
5.28511
5.28509
5.28507
5.28505
5.28503
5.285
5.28498
5.28495
5.28492
5.28489
5.28486
5.28482
5.28479
5.28475
5.2847
5.28466
5.2846
5.28455
5.28449
5.28442
5.28435
5.28427
5.28419
5.2841
5.284
5.28391
5.28364
5.28372
5.2838
5.28388
5.28395
5.28402
5.28408
5.28414
5.2842
5.28425
5.2843
5.28434
5.28438
5.28442
5.28446
5.28449
5.28453
5.28456
5.28459
5.28461
5.28464
5.28467
5.28469
5.28471
5.28474
5.28476
5.28478
5.2848
5.28481
5.28483
5.28484
5.28486
5.28487
5.28488
5.28489
5.2849
5.2849
5.28491
5.28491
5.28491
5.28491
5.28491
5.28491
5.2849
5.2849
5.28489
5.28488
5.28487
5.28486
5.28484
5.28483
5.28481
5.2848
5.28478
5.28476
5.28474
5.28471
5.28469
5.28467
5.28464
5.28461
5.28459
5.28456
5.28453
5.28449
5.28446
5.28442
5.28438
5.28434
5.2843
5.28425
5.2842
5.28414
5.28408
5.28402
5.28395
5.28388
5.2838
5.28372
5.28364
5.28337
5.28344
5.28351
5.28358
5.28365
5.28371
5.28376
5.28382
5.28387
5.28391
5.28396
5.284
5.28404
5.28407
5.28411
5.28414
5.28418
5.28421
5.28424
5.28426
5.28429
5.28432
5.28434
5.28437
5.28439
5.28441
5.28444
5.28446
5.28447
5.28449
5.28451
5.28452
5.28454
5.28455
5.28456
5.28457
5.28458
5.28458
5.28458
5.28459
5.28459
5.28458
5.28458
5.28458
5.28457
5.28456
5.28455
5.28454
5.28452
5.28451
5.28449
5.28447
5.28446
5.28444
5.28441
5.28439
5.28437
5.28434
5.28432
5.28429
5.28426
5.28424
5.28421
5.28418
5.28414
5.28411
5.28407
5.28404
5.284
5.28396
5.28391
5.28387
5.28382
5.28376
5.28371
5.28365
5.28358
5.28351
5.28344
5.28337
5.28311
5.28317
5.28324
5.2833
5.28335
5.28341
5.28346
5.2835
5.28355
5.28359
5.28363
5.28367
5.28371
5.28374
5.28377
5.28381
5.28384
5.28387
5.2839
5.28393
5.28395
5.28398
5.28401
5.28403
5.28405
5.28408
5.2841
5.28412
5.28414
5.28416
5.28418
5.28419
5.28421
5.28422
5.28423
5.28424
5.28425
5.28425
5.28426
5.28426
5.28426
5.28426
5.28425
5.28425
5.28424
5.28423
5.28422
5.28421
5.28419
5.28418
5.28416
5.28414
5.28412
5.2841
5.28408
5.28405
5.28403
5.28401
5.28398
5.28395
5.28393
5.2839
5.28387
5.28384
5.28381
5.28377
5.28374
5.28371
5.28367
5.28363
5.28359
5.28355
5.2835
5.28346
5.28341
5.28335
5.2833
5.28324
5.28317
5.28311
5.28286
5.28291
5.28297
5.28302
5.28307
5.28311
5.28316
5.2832
5.28324
5.28328
5.28332
5.28335
5.28339
5.28342
5.28345
5.28348
5.28351
5.28354
5.28357
5.2836
5.28362
5.28365
5.28368
5.2837
5.28373
5.28375
5.28377
5.28379
5.28381
5.28383
5.28385
5.28387
5.28388
5.28389
5.28391
5.28392
5.28392
5.28393
5.28393
5.28394
5.28394
5.28393
5.28393
5.28392
5.28392
5.28391
5.28389
5.28388
5.28387
5.28385
5.28383
5.28381
5.28379
5.28377
5.28375
5.28373
5.2837
5.28368
5.28365
5.28362
5.2836
5.28357
5.28354
5.28351
5.28348
5.28345
5.28342
5.28339
5.28335
5.28332
5.28328
5.28324
5.2832
5.28316
5.28311
5.28307
5.28302
5.28297
5.28291
5.28286
5.28261
5.28265
5.2827
5.28275
5.28279
5.28283
5.28287
5.28291
5.28295
5.28298
5.28302
5.28305
5.28308
5.28311
5.28314
5.28317
5.2832
5.28322
5.28325
5.28328
5.2833
5.28333
5.28336
5.28338
5.2834
5.28343
5.28345
5.28347
5.28349
5.28351
5.28353
5.28354
5.28356
5.28357
5.28358
5.28359
5.2836
5.28361
5.28361
5.28361
5.28361
5.28361
5.28361
5.2836
5.28359
5.28358
5.28357
5.28356
5.28354
5.28353
5.28351
5.28349
5.28347
5.28345
5.28343
5.2834
5.28338
5.28336
5.28333
5.2833
5.28328
5.28325
5.28322
5.2832
5.28317
5.28314
5.28311
5.28308
5.28305
5.28302
5.28298
5.28295
5.28291
5.28287
5.28283
5.28279
5.28275
5.2827
5.28265
5.28261
5.28236
5.2824
5.28244
5.28248
5.28252
5.28256
5.28259
5.28263
5.28266
5.28269
5.28272
5.28275
5.28278
5.28281
5.28284
5.28286
5.28289
5.28292
5.28294
5.28297
5.28299
5.28302
5.28304
5.28307
5.28309
5.28311
5.28313
5.28315
5.28317
5.28319
5.28321
5.28323
5.28324
5.28326
5.28327
5.28328
5.28328
5.28329
5.28329
5.2833
5.2833
5.28329
5.28329
5.28328
5.28328
5.28327
5.28326
5.28324
5.28323
5.28321
5.28319
5.28317
5.28315
5.28313
5.28311
5.28309
5.28307
5.28304
5.28302
5.28299
5.28297
5.28294
5.28292
5.28289
5.28286
5.28284
5.28281
5.28278
5.28275
5.28272
5.28269
5.28266
5.28263
5.28259
5.28256
5.28252
5.28248
5.28244
5.2824
5.28236
5.28212
5.28215
5.28219
5.28222
5.28226
5.28229
5.28232
5.28235
5.28238
5.28241
5.28244
5.28246
5.28249
5.28252
5.28254
5.28257
5.28259
5.28261
5.28264
5.28266
5.28269
5.28271
5.28273
5.28276
5.28278
5.2828
5.28282
5.28284
5.28286
5.28288
5.2829
5.28291
5.28293
5.28294
5.28295
5.28296
5.28297
5.28298
5.28298
5.28298
5.28298
5.28298
5.28298
5.28297
5.28296
5.28295
5.28294
5.28293
5.28291
5.2829
5.28288
5.28286
5.28284
5.28282
5.2828
5.28278
5.28276
5.28273
5.28271
5.28269
5.28266
5.28264
5.28261
5.28259
5.28257
5.28254
5.28252
5.28249
5.28246
5.28244
5.28241
5.28238
5.28235
5.28232
5.28229
5.28226
5.28222
5.28219
5.28215
5.28212
5.28187
5.2819
5.28194
5.28197
5.282
5.28203
5.28205
5.28208
5.28211
5.28213
5.28216
5.28218
5.28221
5.28223
5.28225
5.28228
5.2823
5.28232
5.28234
5.28237
5.28239
5.28241
5.28243
5.28246
5.28248
5.2825
5.28252
5.28254
5.28256
5.28258
5.28259
5.28261
5.28262
5.28263
5.28264
5.28265
5.28266
5.28267
5.28267
5.28267
5.28267
5.28267
5.28267
5.28266
5.28265
5.28264
5.28263
5.28262
5.28261
5.28259
5.28258
5.28256
5.28254
5.28252
5.2825
5.28248
5.28246
5.28243
5.28241
5.28239
5.28237
5.28234
5.28232
5.2823
5.28228
5.28225
5.28223
5.28221
5.28218
5.28216
5.28213
5.28211
5.28208
5.28205
5.28203
5.282
5.28197
5.28194
5.2819
5.28187
5.28163
5.28166
5.28169
5.28171
5.28174
5.28177
5.28179
5.28181
5.28184
5.28186
5.28188
5.28191
5.28193
5.28195
5.28197
5.28199
5.28201
5.28203
5.28206
5.28208
5.2821
5.28212
5.28214
5.28216
5.28218
5.2822
5.28222
5.28224
5.28226
5.28227
5.28229
5.2823
5.28232
5.28233
5.28234
5.28235
5.28236
5.28236
5.28236
5.28237
5.28237
5.28236
5.28236
5.28236
5.28235
5.28234
5.28233
5.28232
5.2823
5.28229
5.28227
5.28226
5.28224
5.28222
5.2822
5.28218
5.28216
5.28214
5.28212
5.2821
5.28208
5.28206
5.28203
5.28201
5.28199
5.28197
5.28195
5.28193
5.28191
5.28188
5.28186
5.28184
5.28181
5.28179
5.28177
5.28174
5.28171
5.28169
5.28166
5.28163
5.28139
5.28141
5.28144
5.28146
5.28149
5.28151
5.28153
5.28155
5.28157
5.28159
5.28161
5.28163
5.28165
5.28167
5.28169
5.28171
5.28173
5.28175
5.28177
5.28179
5.28181
5.28183
5.28185
5.28187
5.28189
5.28191
5.28193
5.28194
5.28196
5.28198
5.28199
5.28201
5.28202
5.28203
5.28204
5.28205
5.28205
5.28206
5.28206
5.28206
5.28206
5.28206
5.28206
5.28205
5.28205
5.28204
5.28203
5.28202
5.28201
5.28199
5.28198
5.28196
5.28194
5.28193
5.28191
5.28189
5.28187
5.28185
5.28183
5.28181
5.28179
5.28177
5.28175
5.28173
5.28171
5.28169
5.28167
5.28165
5.28163
5.28161
5.28159
5.28157
5.28155
5.28153
5.28151
5.28149
5.28146
5.28144
5.28141
5.28139
5.28115
5.28117
5.28119
5.28122
5.28124
5.28126
5.28127
5.28129
5.28131
5.28133
5.28135
5.28137
5.28138
5.2814
5.28142
5.28144
5.28146
5.28147
5.28149
5.28151
5.28153
5.28155
5.28157
5.28158
5.2816
5.28162
5.28164
5.28165
5.28167
5.28168
5.2817
5.28171
5.28172
5.28173
5.28174
5.28175
5.28176
5.28176
5.28177
5.28177
5.28177
5.28177
5.28176
5.28176
5.28175
5.28174
5.28173
5.28172
5.28171
5.2817
5.28168
5.28167
5.28165
5.28164
5.28162
5.2816
5.28158
5.28157
5.28155
5.28153
5.28151
5.28149
5.28147
5.28146
5.28144
5.28142
5.2814
5.28138
5.28137
5.28135
5.28133
5.28131
5.28129
5.28127
5.28126
5.28124
5.28122
5.28119
5.28117
5.28115
5.28091
5.28093
5.28095
5.28097
5.28099
5.281
5.28102
5.28104
5.28105
5.28107
5.28109
5.2811
5.28112
5.28114
5.28115
5.28117
5.28118
5.2812
5.28122
5.28123
5.28125
5.28127
5.28129
5.2813
5.28132
5.28134
5.28135
5.28137
5.28138
5.2814
5.28141
5.28142
5.28143
5.28144
5.28145
5.28146
5.28146
5.28147
5.28147
5.28147
5.28147
5.28147
5.28147
5.28146
5.28146
5.28145
5.28144
5.28143
5.28142
5.28141
5.2814
5.28138
5.28137
5.28135
5.28134
5.28132
5.2813
5.28129
5.28127
5.28125
5.28123
5.28122
5.2812
5.28118
5.28117
5.28115
5.28114
5.28112
5.2811
5.28109
5.28107
5.28105
5.28104
5.28102
5.281
5.28099
5.28097
5.28095
5.28093
5.28091
5.28068
5.28069
5.28071
5.28072
5.28074
5.28075
5.28077
5.28078
5.2808
5.28081
5.28083
5.28084
5.28086
5.28087
5.28089
5.2809
5.28092
5.28093
5.28095
5.28096
5.28098
5.28099
5.28101
5.28102
5.28104
5.28105
5.28107
5.28108
5.2811
5.28111
5.28112
5.28113
5.28114
5.28115
5.28116
5.28117
5.28117
5.28118
5.28118
5.28118
5.28118
5.28118
5.28118
5.28117
5.28117
5.28116
5.28115
5.28114
5.28113
5.28112
5.28111
5.2811
5.28108
5.28107
5.28105
5.28104
5.28102
5.28101
5.28099
5.28098
5.28096
5.28095
5.28093
5.28092
5.2809
5.28089
5.28087
5.28086
5.28084
5.28083
5.28081
5.2808
5.28078
5.28077
5.28075
5.28074
5.28072
5.28071
5.28069
5.28068
5.28044
5.28045
5.28046
5.28048
5.28049
5.28051
5.28052
5.28053
5.28054
5.28056
5.28057
5.28058
5.2806
5.28061
5.28062
5.28064
5.28065
5.28066
5.28068
5.28069
5.28071
5.28072
5.28074
5.28075
5.28076
5.28078
5.28079
5.2808
5.28082
5.28083
5.28084
5.28085
5.28086
5.28087
5.28088
5.28088
5.28089
5.28089
5.2809
5.2809
5.2809
5.2809
5.28089
5.28089
5.28088
5.28088
5.28087
5.28086
5.28085
5.28084
5.28083
5.28082
5.2808
5.28079
5.28078
5.28076
5.28075
5.28074
5.28072
5.28071
5.28069
5.28068
5.28066
5.28065
5.28064
5.28062
5.28061
5.2806
5.28058
5.28057
5.28056
5.28054
5.28053
5.28052
5.28051
5.28049
5.28048
5.28046
5.28045
5.28044
5.2802
5.28021
5.28022
5.28023
5.28025
5.28026
5.28027
5.28028
5.28029
5.2803
5.28032
5.28033
5.28034
5.28035
5.28036
5.28038
5.28039
5.2804
5.28041
5.28043
5.28044
5.28045
5.28047
5.28048
5.28049
5.2805
5.28052
5.28053
5.28054
5.28055
5.28056
5.28057
5.28058
5.28059
5.2806
5.2806
5.28061
5.28061
5.28061
5.28061
5.28061
5.28061
5.28061
5.28061
5.2806
5.2806
5.28059
5.28058
5.28057
5.28056
5.28055
5.28054
5.28053
5.28052
5.2805
5.28049
5.28048
5.28047
5.28045
5.28044
5.28043
5.28041
5.2804
5.28039
5.28038
5.28036
5.28035
5.28034
5.28033
5.28032
5.2803
5.28029
5.28028
5.28027
5.28026
5.28025
5.28023
5.28022
5.28021
5.2802
5.27996
5.27997
5.27998
5.27999
5.28
5.28001
5.28002
5.28003
5.28004
5.28005
5.28006
5.28007
5.28008
5.28009
5.2801
5.28012
5.28013
5.28014
5.28015
5.28016
5.28017
5.28019
5.2802
5.28021
5.28022
5.28023
5.28024
5.28026
5.28027
5.28028
5.28029
5.2803
5.2803
5.28031
5.28032
5.28032
5.28033
5.28033
5.28033
5.28033
5.28033
5.28033
5.28033
5.28033
5.28032
5.28032
5.28031
5.2803
5.2803
5.28029
5.28028
5.28027
5.28026
5.28024
5.28023
5.28022
5.28021
5.2802
5.28019
5.28017
5.28016
5.28015
5.28014
5.28013
5.28012
5.2801
5.28009
5.28008
5.28007
5.28006
5.28005
5.28004
5.28003
5.28002
5.28001
5.28
5.27999
5.27998
5.27997
5.27996
5.27972
5.27973
5.27974
5.27975
5.27976
5.27976
5.27977
5.27978
5.27979
5.2798
5.27981
5.27982
5.27983
5.27984
5.27985
5.27986
5.27987
5.27988
5.27989
5.2799
5.27991
5.27992
5.27993
5.27994
5.27995
5.27997
5.27998
5.27999
5.28
5.28001
5.28001
5.28002
5.28003
5.28004
5.28004
5.28005
5.28005
5.28005
5.28006
5.28006
5.28006
5.28006
5.28005
5.28005
5.28005
5.28004
5.28004
5.28003
5.28002
5.28001
5.28001
5.28
5.27999
5.27998
5.27997
5.27995
5.27994
5.27993
5.27992
5.27991
5.2799
5.27989
5.27988
5.27987
5.27986
5.27985
5.27984
5.27983
5.27982
5.27981
5.2798
5.27979
5.27978
5.27977
5.27976
5.27976
5.27975
5.27974
5.27973
5.27972
5.27948
5.27949
5.2795
5.2795
5.27951
5.27952
5.27953
5.27953
5.27954
5.27955
5.27956
5.27957
5.27958
5.27958
5.27959
5.2796
5.27961
5.27962
5.27963
5.27964
5.27965
5.27966
5.27967
5.27968
5.27969
5.2797
5.27971
5.27972
5.27973
5.27974
5.27974
5.27975
5.27976
5.27976
5.27977
5.27977
5.27978
5.27978
5.27978
5.27978
5.27978
5.27978
5.27978
5.27978
5.27977
5.27977
5.27976
5.27976
5.27975
5.27974
5.27974
5.27973
5.27972
5.27971
5.2797
5.27969
5.27968
5.27967
5.27966
5.27965
5.27964
5.27963
5.27962
5.27961
5.2796
5.27959
5.27958
5.27958
5.27957
5.27956
5.27955
5.27954
5.27953
5.27953
5.27952
5.27951
5.2795
5.2795
5.27949
5.27948
5.27924
5.27925
5.27925
5.27926
5.27927
5.27927
5.27928
5.27929
5.27929
5.2793
5.27931
5.27932
5.27932
5.27933
5.27934
5.27935
5.27936
5.27936
5.27937
5.27938
5.27939
5.2794
5.27941
5.27942
5.27943
5.27944
5.27944
5.27945
5.27946
5.27947
5.27948
5.27948
5.27949
5.27949
5.2795
5.2795
5.27951
5.27951
5.27951
5.27951
5.27951
5.27951
5.27951
5.27951
5.2795
5.2795
5.27949
5.27949
5.27948
5.27948
5.27947
5.27946
5.27945
5.27944
5.27944
5.27943
5.27942
5.27941
5.2794
5.27939
5.27938
5.27937
5.27936
5.27936
5.27935
5.27934
5.27933
5.27932
5.27932
5.27931
5.2793
5.27929
5.27929
5.27928
5.27927
5.27927
5.27926
5.27925
5.27925
5.27924
5.279
5.27901
5.27901
5.27902
5.27902
5.27903
5.27903
5.27904
5.27905
5.27905
5.27906
5.27907
5.27907
5.27908
5.27909
5.27909
5.2791
5.27911
5.27912
5.27912
5.27913
5.27914
5.27915
5.27916
5.27917
5.27917
5.27918
5.27919
5.2792
5.2792
5.27921
5.27922
5.27922
5.27923
5.27923
5.27924
5.27924
5.27924
5.27924
5.27924
5.27924
5.27924
5.27924
5.27924
5.27924
5.27923
5.27923
5.27922
5.27922
5.27921
5.2792
5.2792
5.27919
5.27918
5.27917
5.27917
5.27916
5.27915
5.27914
5.27913
5.27912
5.27912
5.27911
5.2791
5.27909
5.27909
5.27908
5.27907
5.27907
5.27906
5.27905
5.27905
5.27904
5.27903
5.27903
5.27902
5.27902
5.27901
5.27901
5.279
5.27876
5.27876
5.27877
5.27877
5.27878
5.27878
5.27879
5.27879
5.2788
5.27881
5.27881
5.27882
5.27882
5.27883
5.27883
5.27884
5.27885
5.27885
5.27886
5.27887
5.27888
5.27888
5.27889
5.2789
5.27891
5.27891
5.27892
5.27893
5.27893
5.27894
5.27895
5.27895
5.27896
5.27896
5.27897
5.27897
5.27897
5.27897
5.27898
5.27898
5.27898
5.27898
5.27897
5.27897
5.27897
5.27897
5.27896
5.27896
5.27895
5.27895
5.27894
5.27893
5.27893
5.27892
5.27891
5.27891
5.2789
5.27889
5.27888
5.27888
5.27887
5.27886
5.27885
5.27885
5.27884
5.27883
5.27883
5.27882
5.27882
5.27881
5.27881
5.2788
5.27879
5.27879
5.27878
5.27878
5.27877
5.27877
5.27876
5.27876
5.27852
5.27852
5.27853
5.27853
5.27853
5.27854
5.27854
5.27855
5.27855
5.27856
5.27856
5.27857
5.27857
5.27858
5.27858
5.27859
5.2786
5.2786
5.27861
5.27861
5.27862
5.27863
5.27863
5.27864
5.27865
5.27865
5.27866
5.27867
5.27867
5.27868
5.27868
5.27869
5.27869
5.2787
5.2787
5.2787
5.27871
5.27871
5.27871
5.27871
5.27871
5.27871
5.27871
5.27871
5.2787
5.2787
5.2787
5.27869
5.27869
5.27868
5.27868
5.27867
5.27867
5.27866
5.27865
5.27865
5.27864
5.27863
5.27863
5.27862
5.27861
5.27861
5.2786
5.2786
5.27859
5.27858
5.27858
5.27857
5.27857
5.27856
5.27856
5.27855
5.27855
5.27854
5.27854
5.27853
5.27853
5.27853
5.27852
5.27852
5.27828
5.27828
5.27828
5.27829
5.27829
5.27829
5.2783
5.2783
5.27831
5.27831
5.27831
5.27832
5.27832
5.27833
5.27833
5.27834
5.27834
5.27835
5.27835
5.27836
5.27837
5.27837
5.27838
5.27838
5.27839
5.2784
5.2784
5.27841
5.27841
5.27842
5.27842
5.27843
5.27843
5.27844
5.27844
5.27844
5.27844
5.27845
5.27845
5.27845
5.27845
5.27845
5.27845
5.27844
5.27844
5.27844
5.27844
5.27843
5.27843
5.27842
5.27842
5.27841
5.27841
5.2784
5.2784
5.27839
5.27838
5.27838
5.27837
5.27837
5.27836
5.27835
5.27835
5.27834
5.27834
5.27833
5.27833
5.27832
5.27832
5.27831
5.27831
5.27831
5.2783
5.2783
5.27829
5.27829
5.27829
5.27828
5.27828
5.27828
5.27803
5.27804
5.27804
5.27804
5.27805
5.27805
5.27805
5.27806
5.27806
5.27806
5.27807
5.27807
5.27807
5.27808
5.27808
5.27809
5.27809
5.2781
5.2781
5.27811
5.27811
5.27812
5.27812
5.27813
5.27813
5.27814
5.27814
5.27815
5.27815
5.27816
5.27816
5.27817
5.27817
5.27818
5.27818
5.27818
5.27818
5.27818
5.27819
5.27819
5.27819
5.27819
5.27818
5.27818
5.27818
5.27818
5.27818
5.27817
5.27817
5.27816
5.27816
5.27815
5.27815
5.27814
5.27814
5.27813
5.27813
5.27812
5.27812
5.27811
5.27811
5.2781
5.2781
5.27809
5.27809
5.27808
5.27808
5.27807
5.27807
5.27807
5.27806
5.27806
5.27806
5.27805
5.27805
5.27805
5.27804
5.27804
5.27804
5.27803
5.27779
5.27779
5.2778
5.2778
5.2778
5.2778
5.27781
5.27781
5.27781
5.27782
5.27782
5.27782
5.27783
5.27783
5.27783
5.27784
5.27784
5.27785
5.27785
5.27786
5.27786
5.27786
5.27787
5.27787
5.27788
5.27788
5.27789
5.27789
5.2779
5.2779
5.27791
5.27791
5.27791
5.27792
5.27792
5.27792
5.27792
5.27792
5.27792
5.27793
5.27793
5.27792
5.27792
5.27792
5.27792
5.27792
5.27792
5.27791
5.27791
5.27791
5.2779
5.2779
5.27789
5.27789
5.27788
5.27788
5.27787
5.27787
5.27786
5.27786
5.27786
5.27785
5.27785
5.27784
5.27784
5.27783
5.27783
5.27783
5.27782
5.27782
5.27782
5.27781
5.27781
5.27781
5.2778
5.2778
5.2778
5.2778
5.27779
5.27779
5.27755
5.27755
5.27755
5.27755
5.27756
5.27756
5.27756
5.27756
5.27757
5.27757
5.27757
5.27757
5.27758
5.27758
5.27758
5.27759
5.27759
5.2776
5.2776
5.2776
5.27761
5.27761
5.27762
5.27762
5.27763
5.27763
5.27763
5.27764
5.27764
5.27765
5.27765
5.27765
5.27766
5.27766
5.27766
5.27766