/*--------------------------------*- C++ -*----------------------------------*\
  =========                 |
  \\      /  F ield         | OpenFOAM: The Open Source CFD Toolbox
   \\    /   O peration     | Website:  https://openfoam.org
    \\  /    A nd           | Version:  11
     \\/     M anipulation  |
\*---------------------------------------------------------------------------*/
FoamFile
{
    format      ascii;
    class       volScalarField;
    location    "5";
    object      C;
}
// * * * * * * * * * * * * * * * * * * * * * * * * * * * * * * * * * * * * * //

dimensions      [0 0 0 1 0 0 0];

internalField   nonuniform List<scalar> 
332800
(
1.31307e-217
1.14442e-217
9.08996e-218
6.72336e-218
4.69212e-218
3.11371e-218
1.97588e-218
1.20429e-218
7.07508e-219
4.01801e-219
2.21108e-219
1.18136e-219
6.13899e-220
3.10745e-220
1.53422e-220
7.39744e-221
3.48714e-221
1.60879e-221
7.27097e-222
3.22206e-222
1.40113e-222
5.98333e-223
2.51067e-223
1.03565e-223
4.2006e-224
1.67506e-224
6.56268e-225
2.52243e-225
9.4843e-226
3.47033e-226
1.2239e-226
4.08309e-227
1.23616e-227
3.01172e-228
2.63114e-229
-3.54625e-229
-3.67055e-229
-2.57278e-229
-1.57075e-229
-8.93343e-230
-4.86518e-230
-2.57218e-230
-1.3302e-230
-6.75885e-231
-3.38317e-231
-1.6707e-231
-8.14076e-232
-3.90093e-232
-1.80037e-232
-6.9888e-233
6.11012e-234
1.03111e-232
3.05562e-232
7.97918e-232
2.0219e-231
5.04311e-231
1.24019e-230
3.0054e-230
7.17068e-230
1.68287e-229
3.88102e-229
8.78666e-229
1.95093e-228
4.24375e-228
9.034e-228
1.87994e-227
3.81964e-227
7.56757e-227
1.45995e-226
2.73842e-226
4.98522e-226
8.79091e-226
1.4981e-225
2.46041e-225
3.8811e-225
5.85467e-225
8.3973e-225
1.13583e-224
1.43072e-224
1.64219e-224
4.93774e-217
4.44507e-217
3.69374e-217
2.87479e-217
2.11646e-217
1.48358e-217
9.95107e-218
6.41254e-218
3.98306e-218
2.39118e-218
1.39066e-218
7.85044e-219
4.30911e-219
2.30338e-219
1.20068e-219
6.11109e-220
3.04051e-220
1.4804e-220
7.06086e-221
3.30215e-221
1.51561e-221
6.83269e-222
3.02794e-222
1.31995e-222
5.66344e-223
2.3929e-223
9.95904e-224
4.08296e-224
1.64839e-224
6.54777e-225
2.55472e-225
9.76107e-226
3.6332e-226
1.30529e-226
4.44844e-227
1.38594e-227
3.57011e-228
4.46916e-229
-3.06071e-229
-3.60952e-229
-2.61256e-229
-1.61532e-229
-9.23104e-230
-5.03034e-230
-2.65426e-230
-1.36727e-230
-6.89995e-231
-3.3944e-231
-1.5607e-231
-4.87724e-232
4.39631e-232
1.87563e-231
4.96322e-231
1.21906e-230
2.92432e-230
6.90899e-230
1.60909e-229
3.69217e-229
8.33971e-229
1.85265e-228
4.0439e-228
8.66461e-228
1.82056e-227
3.74728e-227
7.54766e-227
1.48593e-226
2.85593e-226
5.35174e-226
9.76392e-226
1.73166e-225
2.98027e-225
4.96768e-225
8.00152e-225
1.24211e-224
1.85239e-224
2.64346e-224
3.59157e-224
4.61463e-224
5.55363e-224
6.16949e-224
1.12359e-216
1.02178e-216
8.6311e-217
6.85837e-217
5.17167e-217
3.72251e-217
2.56911e-217
1.70623e-217
1.09365e-217
6.78225e-218
4.07774e-218
2.3812e-218
1.35265e-218
7.48518e-219
4.04018e-219
2.12957e-219
1.09737e-219
5.53389e-220
2.7337e-220
1.32407e-220
6.29358e-221
2.93815e-221
1.34828e-221
6.08618e-222
2.70434e-222
1.18357e-222
5.10472e-223
2.1705e-223
9.10023e-224
3.76218e-224
1.53307e-224
6.15239e-225
2.42764e-225
9.3925e-226
3.54655e-226
1.29653e-226
4.52272e-227
1.46189e-227
4.07204e-228
7.34445e-229
-1.5205e-229
-2.81326e-229
-2.20897e-229
-1.41306e-229
-8.22371e-230
-4.52835e-230
-2.3974e-230
-1.21657e-230
-5.54615e-231
-1.2204e-231
3.16017e-231
1.05603e-230
2.64715e-230
6.2695e-230
1.4534e-229
3.31834e-229
7.46621e-229
1.65455e-228
3.60837e-228
7.73782e-228
1.63009e-227
3.37045e-227
6.83336e-227
1.35714e-226
2.63761e-226
5.01104e-226
9.29575e-226
1.68172e-225
2.96324e-225
5.07815e-225
8.45049e-225
1.36308e-224
2.12686e-224
3.20253e-224
4.64023e-224
6.4467e-224
8.54912e-224
1.07566e-223
1.27328e-223
1.40004e-223
2.30339e-216
2.1032e-216
1.78912e-216
1.43529e-216
1.09517e-216
7.99352e-217
5.60535e-217
3.78948e-217
2.47674e-217
1.56856e-217
9.64432e-218
5.7663e-218
3.35734e-218
1.90597e-218
1.05623e-218
5.71971e-219
3.02967e-219
1.57119e-219
7.98463e-220
3.97966e-220
1.94696e-220
9.35685e-221
4.42072e-221
2.05477e-221
9.40244e-222
4.23842e-222
1.88327e-222
8.25265e-223
3.56806e-223
1.52253e-223
6.41286e-224
2.66595e-224
1.09342e-224
4.42055e-225
1.75889e-225
6.86982e-226
2.62261e-226
9.71604e-227
3.44909e-227
1.14462e-227
3.35341e-228
7.15417e-229
-2.92231e-230
-1.68949e-229
-1.45304e-229
-9.61444e-230
-5.66296e-230
-3.05255e-230
-1.37437e-230
-8.57661e-232
1.44937e-230
4.21518e-230
1.01292e-229
2.32606e-229
5.23642e-229
1.16108e-228
2.53674e-228
5.45815e-228
1.15571e-227
2.40625e-227
4.92218e-227
9.88398e-227
1.94665e-226
3.75696e-226
7.09871e-226
1.31188e-225
2.36888e-225
4.17498e-225
7.17337e-225
1.20003e-224
1.95184e-224
3.08156e-224
4.71364e-224
6.96998e-224
9.93605e-224
1.3609e-223
1.78308e-223
2.22174e-223
2.61113e-223
2.8592e-223
4.56606e-216
4.17636e-216
3.56366e-216
2.87143e-216
2.2035e-216
1.61973e-216
1.14552e-216
7.82194e-217
5.17131e-217
3.31778e-217
2.06952e-217
1.25703e-217
7.44489e-218
4.30444e-218
2.43205e-218
1.34412e-218
7.27274e-219
3.85575e-219
2.00453e-219
1.02267e-219
5.1239e-220
2.52297e-220
1.22172e-220
5.82204e-221
2.73214e-221
1.26336e-221
5.75988e-222
2.59061e-222
1.15005e-222
5.04138e-223
2.18303e-223
9.34003e-224
3.94869e-224
1.64937e-224
6.80384e-225
2.76941e-225
1.11065e-225
4.37813e-226
1.68981e-226
6.34573e-227
2.29346e-227
7.81638e-228
2.40268e-228
5.84753e-229
4.18308e-230
-7.96004e-230
-7.85802e-230
-5.13023e-230
-2.25812e-230
7.84662e-231
5.23305e-230
1.37546e-229
3.18813e-229
7.12604e-229
1.56373e-228
3.38057e-228
7.20191e-228
1.51119e-227
3.12117e-227
6.34056e-227
1.26599e-226
2.48253e-226
4.77741e-226
9.0153e-226
1.66688e-225
3.01713e-225
5.34141e-225
9.23997e-225
1.56018e-224
2.56836e-224
4.1165e-224
6.41376e-224
9.69635e-224
1.41922e-223
2.00563e-223
2.72721e-223
3.55241e-223
4.40651e-223
5.16244e-223
5.64296e-223
8.93926e-216
8.18237e-216
6.99149e-216
5.64472e-216
4.34339e-216
3.20384e-216
2.27578e-216
1.56233e-216
1.03957e-216
6.72044e-217
4.22897e-217
2.59454e-217
1.55403e-217
9.09766e-218
5.2109e-218
2.92279e-218
1.60671e-218
8.66277e-219
4.58418e-219
2.38257e-219
1.21699e-219
6.1131e-220
3.02159e-220
1.47053e-220
7.05068e-221
3.33244e-221
1.55351e-221
7.14707e-222
3.2466e-222
1.45691e-222
6.46145e-223
2.83331e-223
1.22872e-223
5.27105e-224
2.2369e-224
9.38935e-225
3.89662e-225
1.59758e-225
6.46219e-226
2.5735e-226
1.00565e-226
3.83551e-227
1.41507e-227
4.97015e-228
1.60921e-228
4.43809e-229
7.77242e-230
-1.00978e-230
-2.01724e-231
5.21117e-230
1.63548e-229
3.93757e-229
8.82954e-229
1.92639e-228
4.13326e-228
8.74105e-228
1.82222e-227
3.7429e-227
7.57064e-227
1.50695e-226
2.95005e-226
5.67594e-226
1.07259e-225
1.98937e-225
3.61884e-225
6.45149e-225
1.12623e-224
1.92341e-224
3.21032e-224
5.23059e-224
8.30792e-224
1.28435e-223
1.92883e-223
2.80759e-223
3.94977e-223
5.35145e-223
6.95125e-223
8.60469e-223
1.00665e-222
1.09951e-222
1.74136e-215
1.59444e-215
1.36321e-215
1.10163e-215
8.48735e-216
6.27117e-216
4.46438e-216
3.07335e-216
2.05212e-216
1.33227e-216
8.4266e-217
5.20127e-217
3.13743e-217
1.85168e-217
1.07037e-217
6.06557e-218
3.37228e-218
1.8408e-218
9.87198e-219
5.20461e-219
2.69905e-219
1.37758e-219
6.9238e-220
3.42868e-220
1.67377e-220
8.0589e-221
3.82908e-221
1.79628e-221
8.32406e-222
3.81231e-222
1.72638e-222
7.73341e-223
3.4282e-223
1.50443e-223
6.53746e-224
2.81354e-224
1.19929e-224
5.06261e-225
2.11566e-225
8.74681e-226
3.5736e-226
1.44031e-226
5.7112e-227
2.2187e-227
8.38909e-228
3.05643e-228
1.06141e-228
3.62547e-229
1.72534e-229
2.18822e-229
4.63035e-229
1.02535e-228
2.22776e-228
4.75625e-228
1.00079e-227
2.07714e-227
4.25185e-227
8.58021e-227
1.7061e-226
3.34086e-226
6.43903e-226
1.22078e-225
2.27538e-225
4.1667e-225
7.49135e-225
1.32141e-224
2.28493e-224
3.86959e-224
6.41148e-224
1.03807e-223
1.64006e-223
2.52422e-223
3.7772e-223
5.4821e-223
7.69469e-223
1.0407e-222
1.35001e-222
1.66953e-222
1.95191e-222
2.13123e-222
3.38489e-215
3.09975e-215
2.65097e-215
2.14319e-215
1.65218e-215
1.22177e-215
8.70706e-216
6.00259e-216
4.01532e-216
2.61283e-216
1.65736e-216
1.0266e-216
6.21884e-217
3.68885e-217
2.14497e-217
1.22381e-217
6.85691e-218
3.7756e-218
2.04444e-218
1.08932e-218
5.71443e-219
2.95293e-219
1.50388e-219
7.55209e-220
3.74126e-220
1.82925e-220
8.83145e-221
4.21211e-221
1.98554e-221
9.25474e-222
4.26736e-222
1.9474e-222
8.79912e-223
3.93808e-223
1.74645e-223
7.67701e-224
3.34588e-224
1.44606e-224
6.19813e-225
2.63452e-225
1.1102e-225
4.63609e-226
1.91685e-226
7.83728e-227
3.16295e-227
1.25744e-227
4.92931e-228
1.95408e-228
9.11926e-229
7.5962e-229
1.22221e-228
2.4883e-228
5.24059e-228
1.09733e-227
2.27089e-227
4.64015e-227
9.35755e-227
1.86165e-226
3.65206e-226
7.06116e-226
1.34491e-225
2.52211e-225
4.65417e-225
8.44624e-225
1.50639e-224
2.6384e-224
4.53423e-224
7.63854e-224
1.26002e-223
2.03259e-223
3.20167e-223
4.91581e-223
7.34188e-223
1.06399e-222
1.49171e-222
2.01579e-222
2.61326e-222
3.2303e-222
3.77555e-222
4.12177e-222
6.57304e-215
6.01976e-215
5.14891e-215
4.16352e-215
3.21058e-215
2.37512e-215
1.69356e-215
1.16837e-215
7.82293e-216
5.09671e-216
3.238e-216
2.00965e-216
1.22038e-216
7.26086e-217
4.23742e-217
2.42815e-217
1.36741e-217
7.5737e-218
4.12866e-218
2.21653e-218
1.17258e-218
6.11574e-219
3.14628e-219
1.59731e-219
8.00603e-220
3.96339e-220
1.93875e-220
9.37492e-221
4.48319e-221
2.12111e-221
9.93309e-222
4.6061e-222
2.11589e-222
9.63267e-223
4.34779e-223
1.94638e-223
8.64534e-224
3.81128e-224
1.66808e-224
7.2496e-225
3.12911e-225
1.34138e-225
5.71043e-226
2.41358e-226
1.01245e-226
4.21467e-227
1.74551e-227
7.32139e-228
3.40735e-228
2.35476e-228
3.07112e-228
5.73724e-228
1.17071e-227
2.40849e-227
4.91464e-227
9.91465e-227
1.97568e-226
3.88684e-226
7.54617e-226
1.44515e-225
2.72864e-225
5.07701e-225
9.30362e-225
1.67806e-224
2.97695e-224
5.1904e-224
8.88593e-224
1.49221e-223
2.45512e-223
3.95221e-223
6.21509e-223
9.53027e-223
1.42195e-222
2.05914e-222
2.88526e-222
3.89727e-222
5.05087e-222
6.2421e-222
7.29467e-222
7.96299e-222
1.27574e-214
1.1684e-214
9.99439e-215
8.0825e-215
6.23349e-215
4.61234e-215
3.28969e-215
2.27034e-215
1.52087e-215
9.91497e-216
6.30438e-216
3.91704e-216
2.38198e-216
1.41968e-216
8.30324e-217
4.77067e-217
2.69524e-217
1.49855e-217
8.20579e-218
4.42833e-218
2.35662e-218
1.23738e-218
6.41356e-219
3.28303e-219
1.66042e-219
8.30053e-220
4.10313e-220
2.00639e-220
9.709e-221
4.65118e-221
2.20675e-221
1.03733e-221
4.83311e-222
2.23286e-222
1.02329e-222
4.65381e-223
2.10121e-223
9.42202e-224
4.19755e-224
1.85856e-224
8.18123e-225
3.58134e-225
1.55939e-225
6.75505e-226
2.9117e-226
1.2495e-226
5.35207e-227
2.31882e-227
1.08163e-227
6.73602e-228
7.44133e-228
1.27413e-227
2.5167e-227
5.0945e-227
1.0274e-226
2.05157e-226
4.0503e-226
7.90083e-226
1.52211e-225
2.89476e-225
5.43203e-225
1.00523e-224
1.83343e-224
3.29362e-224
5.82325e-224
1.01244e-223
1.72931e-223
2.89864e-223
4.76207e-223
7.657e-223
1.20303e-222
1.84348e-222
2.7491e-222
3.97944e-222
5.57437e-222
7.52797e-222
9.75472e-222
1.2054e-221
1.40856e-221
1.53755e-221
2.47524e-214
2.26702e-214
1.93927e-214
1.56839e-214
1.20969e-214
8.95178e-215
6.38565e-215
4.40783e-215
2.95351e-215
1.92613e-215
1.22527e-215
7.61737e-216
4.63575e-216
2.7657e-216
1.61961e-216
9.32039e-217
5.27604e-217
2.94054e-217
1.61487e-217
8.7449e-218
4.67261e-218
2.46494e-218
1.28446e-218
6.61481e-219
3.36811e-219
1.69632e-219
8.45389e-220
4.17057e-220
2.03744e-220
9.86019e-221
4.72887e-221
2.24835e-221
1.06015e-221
4.95943e-222
2.30267e-222
1.06154e-222
4.86099e-223
2.21191e-223
1.00056e-223
4.50116e-224
2.01458e-224
8.97412e-225
3.98025e-225
1.75834e-225
7.74025e-226
3.39774e-226
1.4909e-226
6.60723e-227
3.09646e-227
1.80993e-227
1.75277e-227
2.75343e-227
5.25948e-227
1.04884e-226
2.09461e-226
4.14937e-226
8.13447e-226
1.57685e-225
3.02099e-225
5.71733e-225
1.06832e-224
1.96983e-224
3.58179e-224
6.41801e-224
1.13235e-223
1.96541e-223
3.35249e-223
5.6134e-223
9.21441e-223
1.48066e-222
2.32521e-222
3.56174e-222
5.31002e-222
7.68488e-222
1.07632e-221
1.45336e-221
1.8831e-221
2.32682e-221
2.71886e-221
2.96778e-221
4.80143e-214
4.39759e-214
3.76192e-214
3.04257e-214
2.34683e-214
1.73678e-214
1.23902e-214
8.55353e-215
5.73219e-215
3.73895e-215
2.37905e-215
1.47951e-215
9.00781e-216
5.37708e-216
3.15115e-216
1.81508e-216
1.02869e-216
5.74171e-217
3.15895e-217
1.71445e-217
9.18516e-218
4.86077e-218
2.5423e-218
1.31486e-218
6.72769e-219
3.40706e-219
1.70843e-219
8.48568e-220
4.17646e-220
2.03759e-220
9.85758e-221
4.73064e-221
2.25279e-221
1.06496e-221
4.9994e-222
2.33153e-222
1.08061e-222
4.97947e-223
2.28221e-223
1.04081e-223
4.7251e-224
2.13634e-224
9.62356e-225
4.32128e-225
1.9352e-225
8.65038e-226
3.86791e-226
1.74457e-226
8.22492e-227
4.61894e-227
4.03303e-227
5.83387e-227
1.07696e-226
2.11774e-226
4.19525e-226
8.25989e-226
1.61091e-225
3.10874e-225
5.93272e-225
1.11906e-224
2.08516e-224
3.8357e-224
6.96101e-224
1.24534e-223
2.19444e-223
3.80504e-223
6.48536e-223
1.08525e-222
1.78062e-222
2.86024e-222
4.4905e-222
6.87711e-222
1.02511e-221
1.48341e-221
2.07744e-221
2.80497e-221
3.63417e-221
4.49031e-221
5.24673e-221
5.72698e-221
9.3119e-214
8.5288e-214
7.29609e-214
5.90111e-214
4.55188e-214
3.36879e-214
2.40343e-214
1.65931e-214
1.11209e-214
7.25466e-215
4.61672e-215
2.87163e-215
1.74878e-215
1.04424e-215
6.12216e-216
3.5283e-216
2.00103e-216
1.11789e-216
6.15723e-217
3.34634e-217
1.79587e-217
9.52345e-218
4.99338e-218
2.59013e-218
1.32983e-218
6.76124e-219
3.40564e-219
1.70017e-219
8.41538e-220
4.13145e-220
2.01248e-220
9.73e-221
4.67089e-221
2.22712e-221
1.05511e-221
4.96851e-222
2.32642e-222
1.08356e-222
5.02222e-223
2.31738e-223
1.06499e-223
4.8768e-224
2.22621e-224
1.01358e-224
4.60522e-225
2.08981e-225
9.49017e-226
4.34301e-226
2.06114e-226
1.12829e-226
9.0896e-227
1.21813e-226
2.17328e-226
4.21756e-226
8.2992e-226
1.62645e-225
3.16025e-225
6.07963e-225
1.15719e-224
2.17794e-224
4.0508e-224
7.44047e-224
1.34868e-223
2.41051e-223
4.24441e-223
7.35528e-223
1.25308e-222
2.09616e-222
3.43834e-222
5.52196e-222
8.66795e-222
1.32732e-221
1.97834e-221
2.86258e-221
4.00865e-221
5.41224e-221
7.01191e-221
8.66353e-221
1.01227e-220
1.10492e-220
1.80562e-213
1.65379e-213
1.41479e-213
1.14431e-213
8.82702e-214
6.533e-214
4.66109e-214
3.21815e-214
2.15697e-214
1.40719e-214
8.9559e-215
5.57126e-215
3.39331e-215
2.02661e-215
1.18845e-215
6.85137e-216
3.88727e-216
2.17279e-216
1.19756e-216
6.51412e-217
3.49967e-217
1.85833e-217
9.75951e-218
5.07231e-218
2.61034e-218
1.33083e-218
6.72492e-219
3.36963e-219
1.67488e-219
8.26154e-220
4.04551e-220
1.96733e-220
9.50439e-221
4.56316e-221
2.17797e-221
1.03381e-221
4.8819e-222
2.29434e-222
1.07354e-222
5.0032e-223
2.32342e-223
1.07561e-223
4.96623e-224
2.28804e-224
1.05248e-224
4.83756e-225
2.22575e-225
1.03125e-225
4.92773e-226
2.6542e-226
2.00992e-226
2.51516e-226
4.34053e-226
8.31947e-226
1.62794e-225
3.17934e-225
6.1614e-225
1.18281e-224
2.24743e-224
4.22386e-224
7.847e-224
1.44e-223
2.60827e-223
4.65914e-223
8.20011e-223
1.42053e-222
2.41944e-222
4.04643e-222
6.63631e-222
1.06566e-221
1.67262e-221
2.56108e-221
3.81698e-221
5.52272e-221
7.73344e-221
1.04409e-220
1.35264e-220
1.6712e-220
1.95265e-220
2.13133e-220
3.50058e-213
3.20625e-213
2.74293e-213
2.21859e-213
1.71143e-213
1.26669e-213
9.03777e-214
6.24018e-214
4.18269e-214
2.7289e-214
1.73689e-214
1.08056e-214
6.58203e-215
3.9315e-215
2.30585e-215
1.32958e-215
7.54548e-216
4.21889e-216
2.32625e-216
1.26602e-216
6.80614e-217
3.61709e-217
1.90159e-217
9.89582e-218
5.10058e-218
2.6053e-218
1.31943e-218
6.62846e-219
3.30466e-219
1.63572e-219
8.04134e-220
3.9278e-220
1.90691e-220
9.205e-221
4.41962e-221
2.11137e-221
1.00397e-221
4.75348e-222
2.24183e-222
1.05358e-222
4.93606e-223
2.30639e-223
1.07528e-223
5.00454e-224
2.32648e-224
1.08111e-224
5.03011e-225
2.35563e-225
1.13324e-225
6.04327e-226
4.36588e-226
5.14653e-226
8.60562e-226
1.63038e-225
3.17526e-225
6.18508e-225
1.19646e-224
2.29362e-224
4.35313e-224
8.17397e-224
1.51745e-223
2.78309e-223
5.03876e-223
8.99759e-223
1.58316e-222
2.74198e-222
4.66935e-222
7.80831e-222
1.28047e-221
2.05599e-221
3.2268e-221
4.9405e-221
7.36284e-221
1.06527e-220
1.49164e-220
2.01378e-220
2.60882e-220
3.22316e-220
3.7659e-220
4.11047e-220
6.78544e-213
6.21498e-213
5.31697e-213
4.30067e-213
3.31763e-213
2.45557e-213
1.75209e-213
1.20979e-213
8.10933e-214
5.29099e-214
3.36777e-214
2.09529e-214
1.27639e-214
7.62462e-215
4.47234e-215
2.57911e-215
1.4639e-215
8.18667e-216
4.51518e-216
2.4581e-216
1.32202e-216
7.02949e-217
3.69801e-217
1.92601e-217
9.93731e-218
5.08214e-218
2.57768e-218
1.29729e-218
6.48145e-219
3.21611e-219
1.5856e-219
7.77031e-220
3.78641e-220
1.83538e-220
8.85295e-221
4.25081e-221
2.03252e-221
9.68133e-222
4.59553e-222
2.17472e-222
1.0264e-222
4.8334e-223
2.27201e-223
1.06659e-223
5.00318e-224
2.34684e-224
1.10246e-224
5.21102e-225
2.52309e-225
1.33765e-225
9.32661e-226
1.04497e-225
1.69714e-225
3.18093e-225
6.1701e-225
1.19951e-224
2.31744e-224
4.4384e-224
8.41769e-224
1.57971e-223
2.93133e-223
5.37433e-223
9.72751e-223
1.73664e-222
3.05516e-222
5.29075e-222
9.00869e-222
1.50634e-221
2.47003e-221
3.96578e-221
6.22378e-221
9.52866e-221
1.42e-220
2.0544e-220
2.87656e-220
3.88336e-220
5.03071e-220
6.21522e-220
7.26167e-220
7.92601e-220
1.31505e-212
1.2045e-212
1.03048e-212
8.33527e-213
6.43016e-213
4.75947e-213
3.39607e-213
2.345e-213
1.57194e-213
1.02567e-213
6.52875e-214
4.06213e-214
2.47467e-214
1.47835e-214
8.67213e-215
5.00147e-215
2.83912e-215
1.58795e-215
8.75941e-216
4.76967e-216
2.56589e-216
1.36479e-216
7.18278e-217
3.74293e-217
1.93244e-217
9.89095e-218
5.02175e-218
2.5304e-218
1.26607e-218
6.29319e-219
3.109e-219
1.5272e-219
7.46224e-220
3.62841e-220
1.75631e-220
8.46618e-221
4.06569e-221
1.94583e-221
9.28455e-222
4.41846e-222
2.09801e-222
9.94377e-223
4.70641e-223
2.22549e-223
1.05193e-223
4.97378e-224
2.35576e-224
1.12248e-224
5.46751e-225
2.88961e-225
1.96191e-225
2.10711e-225
3.33367e-225
6.18735e-225
1.19602e-224
2.32161e-224
4.4814e-224
8.57759e-224
1.62603e-223
3.0504e-223
5.65877e-223
1.03725e-222
1.87709e-222
3.35069e-222
5.89397e-222
1.02059e-221
1.73764e-221
2.90531e-221
4.7637e-221
7.648e-221
1.2002e-220
1.83743e-220
2.7381e-220
3.96123e-220
5.54631e-220
7.48731e-220
9.69919e-220
1.19827e-219
1.39999e-219
1.52806e-219
2.5482e-212
2.33401e-212
1.99682e-212
1.61521e-212
1.24607e-212
9.2234e-213
6.58146e-213
4.54469e-213
3.04658e-213
1.98792e-213
1.26544e-213
7.87379e-214
4.79698e-214
2.86583e-214
1.68122e-214
9.69672e-215
5.50484e-215
3.0792e-215
1.69873e-215
9.25114e-216
4.97759e-216
2.64813e-216
1.39406e-216
7.26686e-217
3.7534e-217
1.92215e-217
9.76538e-218
4.92464e-218
2.46645e-218
1.22744e-218
6.07252e-219
2.98794e-219
1.46285e-219
7.12912e-220
3.45981e-220
1.67272e-220
8.05959e-221
3.87161e-221
1.85492e-221
8.86711e-222
4.23093e-222
2.01588e-222
9.59525e-223
4.56465e-223
2.17141e-223
1.03361e-223
4.92975e-224
2.36519e-224
1.15834e-224
6.11357e-225
4.06954e-225
4.22201e-225
6.52788e-225
1.201e-224
2.31462e-224
4.4876e-224
8.65698e-224
1.6563e-223
3.13887e-223
5.88707e-223
1.0919e-222
2.00116e-222
3.62103e-222
6.46304e-222
1.13677e-221
1.96827e-221
3.35094e-221
5.6024e-221
9.18551e-221
1.47464e-220
2.31404e-220
3.54251e-220
5.27877e-220
7.63657e-220
1.0692e-219
1.44333e-219
1.86967e-219
2.3098e-219
2.6986e-219
2.94543e-219
4.93685e-212
4.52193e-212
3.86872e-212
3.12944e-212
2.41429e-212
1.7871e-212
1.27525e-212
8.80623e-213
5.90355e-213
3.85226e-213
2.45231e-213
1.52594e-213
9.29695e-214
5.55449e-214
3.25866e-214
1.8796e-214
1.06712e-214
5.96946e-215
3.29349e-215
1.79379e-215
9.65263e-216
5.13605e-216
2.70425e-216
1.40997e-216
7.28462e-217
3.7318e-217
1.89674e-217
9.57031e-218
4.79635e-218
2.38885e-218
1.18299e-218
5.82762e-219
2.85708e-219
1.39465e-219
6.7812e-220
3.28568e-220
1.58708e-220
7.64541e-221
3.67455e-221
1.76272e-221
8.44329e-222
4.0399e-222
1.93173e-222
9.23496e-223
4.41626e-223
2.11394e-223
1.01414e-223
4.89422e-224
2.40849e-224
1.27084e-224
8.33641e-225
8.41054e-225
1.27499e-224
2.32768e-224
4.47453e-224
8.66699e-224
1.67118e-223
3.19649e-223
6.05644e-223
1.13573e-222
2.10622e-222
3.85973e-222
6.98341e-222
1.24635e-221
2.19203e-221
3.79517e-221
6.46083e-221
1.08012e-220
1.77085e-220
2.84279e-220
4.46078e-220
6.82863e-220
1.01751e-219
1.47193e-219
2.06079e-219
2.78183e-219
3.60344e-219
4.4516e-219
5.20085e-219
5.67649e-219
9.56297e-212
8.75932e-212
7.49413e-212
6.06218e-212
4.67694e-212
3.46206e-212
2.47054e-212
1.70609e-212
1.14378e-212
7.46379e-213
4.75156e-213
2.95675e-213
1.80151e-213
1.07637e-213
6.31505e-214
3.6427e-214
2.06821e-214
1.15703e-214
6.38403e-215
3.4773e-215
1.87135e-215
9.95825e-216
5.24391e-216
2.73453e-216
1.41306e-216
7.24059e-217
3.68119e-217
1.85806e-217
9.31612e-218
4.64247e-218
2.30053e-218
1.13419e-218
5.56591e-219
2.72006e-219
1.32437e-219
6.42711e-220
3.11018e-220
1.50141e-220
7.23333e-221
3.47922e-221
1.67152e-221
8.02432e-222
3.85089e-222
1.84828e-222
8.8765e-223
4.26842e-223
2.05765e-223
9.97897e-224
4.93128e-224
2.60297e-224
1.68912e-224
1.66659e-224
2.48479e-224
4.50621e-224
8.64338e-224
1.6729e-223
3.22458e-223
6.16644e-223
1.1682e-222
2.1904e-222
4.06174e-222
7.44269e-222
1.34651e-221
2.40299e-221
4.22605e-221
7.31636e-221
1.24546e-220
2.08206e-220
3.41336e-220
5.4793e-220
8.59753e-220
1.31607e-219
1.96095e-219
2.83663e-219
3.9713e-219
5.36064e-219
6.94372e-219
8.57793e-219
1.00215e-218
1.09379e-218
1.85209e-211
1.69646e-211
1.45145e-211
1.17413e-211
9.05861e-212
6.70572e-212
4.78538e-212
3.30477e-212
2.21562e-212
1.44587e-212
9.20498e-213
5.72822e-213
3.49028e-213
2.08546e-213
1.2236e-213
7.0584e-214
4.00773e-214
2.24219e-214
1.23722e-214
6.73943e-215
3.62717e-215
1.93033e-215
1.01658e-215
5.30175e-216
2.74003e-216
1.40423e-216
7.14062e-217
3.60505e-217
1.80807e-217
9.01339e-218
4.46849e-218
2.20424e-218
1.08242e-218
5.29403e-219
2.58006e-219
1.25351e-219
6.07396e-220
2.93666e-220
1.4173e-220
6.83095e-221
3.28927e-221
1.58309e-221
7.61886e-222
3.66818e-222
1.76769e-222
8.53166e-223
4.12903e-223
2.01056e-223
9.97079e-224
5.26673e-224
3.39049e-224
3.28683e-224
4.83336e-224
8.7159e-224
1.6687e-223
3.22765e-223
6.21974e-223
1.18923e-222
2.25269e-222
4.22348e-222
7.83113e-222
1.43487e-221
2.59576e-221
4.63216e-221
8.14595e-221
1.4102e-220
2.40045e-220
4.01269e-220
6.57816e-220
1.05591e-219
1.65676e-219
2.53599e-219
3.77849e-219
5.46561e-219
7.65165e-219
1.03282e-218
1.3378e-218
1.65261e-218
1.9307e-218
2.10723e-218
3.5864e-211
3.28506e-211
2.81066e-211
2.2737e-211
1.75423e-211
1.29862e-211
9.26759e-212
6.40038e-212
4.29116e-212
2.80044e-212
1.78294e-212
1.10956e-212
6.76096e-213
4.03989e-213
2.37042e-213
1.36746e-213
7.76475e-214
4.34433e-214
2.3973e-214
1.30594e-214
7.02901e-215
3.741e-215
1.9703e-215
1.02765e-215
5.31161e-216
2.72244e-216
1.38458e-216
6.99145e-217
3.5072e-217
1.7488e-217
8.67255e-218
4.27963e-218
2.10253e-218
1.0289e-218
5.01771e-219
2.43977e-219
1.18332e-219
5.7275e-220
2.76779e-220
1.33598e-220
6.44406e-221
3.10745e-221
1.49876e-221
7.23342e-222
3.4951e-222
1.69183e-222
8.21376e-223
4.01268e-223
1.99583e-223
1.05508e-223
6.75204e-224
6.45543e-224
9.38627e-224
1.68459e-223
3.22019e-223
6.22531e-223
1.19937e-222
2.29294e-222
4.34299e-222
8.14189e-222
1.50956e-221
2.76575e-221
5.0031e-221
8.92758e-221
1.56989e-220
2.7176e-220
4.62571e-220
7.73216e-220
1.2675e-219
2.03449e-219
3.19203e-219
4.88583e-219
7.27937e-219
1.05293e-218
1.47401e-218
1.98957e-218
2.57699e-218
3.18334e-218
3.71895e-218
4.05894e-218
6.94353e-211
6.36019e-211
5.44178e-211
4.40225e-211
3.39656e-211
2.51447e-211
1.7945e-211
1.23936e-211
8.30963e-212
5.42311e-212
3.45283e-212
2.14885e-212
1.30943e-212
7.82461e-213
4.59132e-213
2.64878e-213
1.50411e-213
8.41585e-214
4.6443e-214
2.53014e-214
1.36189e-214
7.24871e-215
3.818e-215
1.9915e-215
1.02943e-215
5.27676e-216
2.68394e-216
1.35543e-216
6.80039e-217
3.3915e-217
1.68225e-217
8.30354e-218
4.08072e-218
1.99771e-218
9.7469e-219
4.74189e-219
2.30141e-219
1.11481e-219
5.39227e-220
2.60561e-220
1.25838e-220
6.07691e-221
2.93576e-221
1.4195e-221
6.87298e-222
3.33452e-222
1.62292e-222
7.9492e-223
3.96325e-223
2.09678e-223
1.33591e-223
1.26337e-223
1.82018e-223
3.25394e-223
6.21198e-223
1.20038e-222
2.31222e-222
4.42004e-222
8.3712e-222
1.56926e-221
2.90934e-221
5.33005e-221
9.64127e-221
1.72031e-220
3.02496e-220
5.23616e-220
8.91223e-220
1.48967e-219
2.44184e-219
3.91926e-219
6.14891e-219
9.41135e-219
1.40214e-218
2.02806e-218
2.83902e-218
3.8319e-218
4.96314e-218
6.13081e-218
7.16222e-218
7.81693e-218
1.34409e-210
1.23118e-210
1.05342e-210
8.52202e-211
6.57533e-211
4.86785e-211
3.47414e-211
2.39947e-211
1.60885e-211
1.05002e-211
6.6856e-212
4.16092e-212
2.53562e-212
1.51524e-212
8.89153e-213
5.12985e-213
2.91313e-213
1.63004e-213
8.99587e-214
4.90106e-214
2.63822e-214
1.40429e-214
7.39702e-215
3.8586e-215
1.99469e-215
1.02254e-215
5.20146e-216
2.62707e-216
1.31819e-216
6.57495e-217
3.26181e-217
1.61032e-217
7.91557e-218
3.8761e-218
1.89178e-218
9.20711e-219
4.47064e-219
2.1668e-219
1.04877e-219
5.07172e-220
2.45163e-220
1.18518e-220
5.73258e-221
2.77564e-221
1.34603e-221
6.54185e-222
3.19007e-222
1.56573e-222
7.8211e-223
4.14061e-223
2.62919e-223
2.46516e-223
3.52538e-223
6.28195e-223
1.19797e-222
2.31405e-222
4.45673e-222
8.51869e-222
1.61326e-221
3.02402e-221
5.60608e-221
1.027e-220
1.8576e-220
3.31437e-220
5.82764e-220
1.00871e-219
1.71679e-219
2.86946e-219
4.70337e-219
7.54878e-219
1.18428e-218
1.81255e-218
2.7003e-218
3.90558e-218
5.46714e-218
7.37892e-218
9.55705e-218
1.18053e-217
1.37911e-217
1.50516e-217
2.60138e-210
2.38287e-210
2.03885e-210
1.64944e-210
1.27269e-210
9.42222e-211
6.72476e-211
4.64471e-211
3.11439e-211
2.03269e-211
1.29429e-211
8.05561e-212
4.9092e-212
2.93378e-212
1.72164e-212
9.93322e-213
5.64113e-213
3.15665e-213
1.74218e-213
9.49209e-214
5.10982e-214
2.72004e-214
1.43285e-214
7.47482e-215
3.86434e-215
1.98112e-215
1.00783e-215
5.09059e-216
2.55455e-216
1.27431e-216
6.32256e-217
3.12181e-217
1.53479e-217
7.51701e-218
3.66962e-218
1.78647e-218
8.67731e-219
4.20733e-219
2.03737e-219
9.85802e-220
4.76843e-220
2.30695e-220
1.11684e-220
5.41314e-221
2.62813e-221
1.27899e-221
6.24603e-222
3.07046e-222
1.53602e-222
8.13629e-223
5.15276e-223
4.79838e-223
6.82097e-223
1.21222e-222
2.30961e-222
4.45997e-222
8.58849e-222
1.64149e-221
3.10843e-221
5.82635e-221
1.08006e-220
1.9785e-220
3.57843e-220
6.38439e-220
1.12251e-219
1.94286e-219
3.30652e-219
5.52629e-219
9.05782e-219
1.45369e-218
2.2805e-218
3.49019e-218
5.19943e-218
7.51993e-218
1.05263e-217
1.42067e-217
1.83998e-217
2.27278e-217
2.65505e-217
2.89769e-217
5.03389e-210
4.61111e-210
3.94544e-210
3.19195e-210
2.46293e-210
1.82346e-210
1.30146e-210
8.98936e-211
6.0278e-211
3.93435e-211
2.50525e-211
1.55932e-211
9.50309e-212
5.67937e-212
3.33298e-212
1.9231e-212
1.09219e-212
6.11194e-213
3.37339e-213
1.83806e-213
9.89523e-214
5.26767e-214
2.77505e-214
1.44776e-214
7.48507e-215
3.8376e-215
1.95238e-215
9.86232e-216
4.94948e-216
2.46921e-216
1.22523e-216
6.05033e-217
2.97492e-217
1.45726e-217
7.11519e-218
3.46456e-218
1.68323e-218
8.1637e-219
3.95456e-219
1.91422e-219
9.26364e-220
4.48421e-220
2.1723e-220
1.05367e-220
5.12008e-221
2.49416e-221
1.21939e-221
6.0015e-222
3.00565e-222
1.59271e-222
1.00653e-222
9.3215e-223
1.31859e-222
2.33825e-222
4.45169e-222
8.59414e-222
1.65476e-221
3.16245e-221
5.98824e-221
1.12235e-220
2.08044e-220
3.81085e-220
6.89217e-220
1.22959e-219
2.16177e-219
3.74144e-219
6.3672e-219
1.06412e-218
1.74406e-218
2.79892e-218
4.39067e-218
6.71943e-218
1.00097e-217
1.44766e-217
2.02634e-217
2.73475e-217
3.54182e-217
4.37482e-217
5.11056e-217
5.57756e-217
9.73936e-210
8.92145e-210
7.63366e-210
6.17593e-210
4.7655e-210
3.52829e-210
2.51834e-210
1.7395e-210
1.16646e-210
7.61379e-211
4.84836e-211
3.01784e-211
1.83927e-211
1.09926e-211
6.45136e-212
3.72254e-212
2.11425e-212
1.1832e-212
6.53083e-213
3.55863e-213
1.9159e-213
1.01997e-213
5.37359e-214
2.80359e-214
1.44958e-214
7.43245e-215
3.78151e-215
1.91033e-215
9.58783e-216
4.78357e-216
2.37383e-216
1.17233e-216
5.76489e-217
2.82424e-217
1.37914e-217
6.71642e-218
3.26369e-218
1.58323e-218
7.67119e-219
3.71434e-219
1.79813e-219
8.70762e-220
4.22025e-220
2.04815e-220
9.95883e-221
4.8548e-221
2.37545e-221
1.17018e-221
5.86531e-222
3.1088e-222
1.96112e-222
1.80798e-222
2.54717e-222
4.50869e-222
8.57847e-222
1.65572e-221
3.18767e-221
6.09159e-221
1.1534e-220
2.16165e-220
4.00671e-220
7.33889e-220
1.32722e-219
2.36769e-219
4.16247e-219
7.20377e-219
1.22588e-218
2.04866e-218
3.35754e-218
5.38806e-218
8.45189e-218
1.29342e-217
1.92669e-217
2.78637e-217
3.90006e-217
5.26339e-217
6.81652e-217
8.4195e-217
9.83529e-217
1.07339e-216
1.88401e-209
1.72581e-209
1.47671e-209
1.19474e-209
9.21916e-210
6.82588e-210
4.87216e-210
3.36548e-210
2.25688e-210
1.47318e-210
9.38135e-211
5.83961e-211
3.55919e-211
2.12728e-211
1.24852e-211
7.20449e-212
4.09205e-212
2.29015e-212
1.26414e-212
6.88862e-213
3.7089e-213
1.97463e-213
1.04036e-213
5.42825e-214
2.8068e-214
1.43923e-214
7.32301e-215
3.69965e-215
1.85696e-215
9.26542e-216
4.59827e-216
2.27107e-216
1.11689e-216
5.47222e-217
2.6725e-217
1.30166e-217
6.32602e-218
3.06927e-218
1.48742e-218
7.20354e-219
3.48814e-219
1.68966e-219
8.19196e-220
3.97726e-220
1.93479e-220
9.43689e-221
4.62026e-221
2.2775e-221
1.14224e-221
6.05491e-222
3.81363e-222
3.50241e-222
4.91755e-222
8.69106e-222
1.65272e-221
3.18927e-221
6.13951e-221
1.17317e-220
2.22118e-220
4.1626e-220
7.71513e-220
1.41307e-219
2.55536e-219
4.55839e-219
8.01339e-219
1.38677e-218
2.35978e-218
3.94343e-218
6.46256e-218
1.03704e-217
1.62667e-217
2.48924e-217
3.70787e-217
5.36212e-217
7.50506e-217
1.01283e-216
1.31166e-216
1.62008e-216
1.89247e-216
2.06536e-216
3.64386e-209
3.33791e-209
2.85618e-209
2.31085e-209
1.7832e-209
1.32032e-209
9.42444e-210
6.51021e-210
4.36588e-210
2.84993e-210
1.81494e-210
1.12979e-210
6.88625e-211
4.11599e-211
2.41583e-211
1.3941e-211
7.91866e-212
4.43196e-212
2.44652e-212
1.33324e-212
7.17867e-213
3.82215e-213
2.01387e-213
1.05083e-213
5.43386e-214
2.78645e-214
1.41788e-214
7.1637e-215
3.5959e-215
1.79432e-215
8.90554e-216