/*--------------------------------*- C++ -*----------------------------------*\
  =========                 |
  \\      /  F ield         | OpenFOAM: The Open Source CFD Toolbox
   \\    /   O peration     | Website:  https://openfoam.org
    \\  /    A nd           | Version:  11
     \\/     M anipulation  |
\*---------------------------------------------------------------------------*/
FoamFile
{
    format      ascii;
    class       volScalarField;
    location    "100";
    object      C;
}
// * * * * * * * * * * * * * * * * * * * * * * * * * * * * * * * * * * * * * //

dimensions      [0 0 0 1 0 0 0];

internalField   nonuniform List<scalar> 
427520
(
-2.05363e-185
-2.59579e-185
-2.94268e-185
-3.11466e-185
-3.11734e-185
-2.98103e-185
-2.75329e-185
-2.47848e-185
-2.18895e-185
-1.90511e-185
-1.63849e-185
-1.39484e-185
-1.17644e-185
-9.83549e-186
-8.15247e-186
-6.69991e-186
-5.45892e-186
-4.4091e-186
-3.52963e-186
-2.80004e-186
-2.20077e-186
-1.71346e-186
-1.32124e-186
-1.00881e-186
-7.62566e-187
-5.70554e-187
-4.22458e-187
-3.09491e-187
-2.24285e-187
-1.60746e-187
-1.13911e-187
-7.97934e-188
-5.52364e-188
-3.77758e-188
-2.55148e-188
-1.70141e-188
-1.11967e-188
-7.26813e-189
-4.65083e-189
-2.93108e-189
-1.81744e-189
-1.11283e-189
-6.73719e-190
-4.03629e-190
-2.39437e-190
-1.40695e-190
-8.19165e-191
-4.72673e-191
-2.70349e-191
-1.53295e-191
-8.61841e-192
-4.80475e-192
-2.65645e-192
-1.45667e-192
-7.92286e-193
-4.27464e-193
-2.28795e-193
-1.21494e-193
-6.40111e-194
-3.34639e-194
-1.73602e-194
-8.93778e-195
-4.56738e-195
-2.31731e-195
-1.16795e-195
-5.85496e-196
-2.92761e-196
-1.46966e-196
-7.51504e-197
-4.03266e-197
-2.38835e-197
-1.65165e-197
-1.35868e-197
-1.27623e-197
-1.28257e-197
-1.30797e-197
-1.30748e-197
-1.25281e-197
-1.13662e-197
-9.50524e-198
-3.32981e-185
-3.59052e-185
-3.8779e-185
-4.17621e-185
-4.45964e-185
-4.63382e-185
-4.65556e-185
-4.52906e-185
-4.28388e-185
-3.95714e-185
-3.58336e-185
-3.1904e-185
-2.79884e-185
-2.42293e-185
-2.07192e-185
-1.7513e-185
-1.46377e-185
-1.21009e-185
-9.89568e-186
-8.00514e-186
-6.40594e-186
-5.07063e-186
-3.96983e-186
-3.07374e-186
-2.35341e-186
-1.78157e-186
-1.33327e-186
-9.86223e-187
-7.20932e-187
-5.20704e-187
-3.7151e-187
-2.61777e-187
-1.82122e-187
-1.25065e-187
-8.47462e-188
-5.66443e-188
-3.73309e-188
-2.42456e-188
-1.55077e-188
-9.7575e-189
-6.02899e-189
-3.68076e-189
-2.22228e-189
-1.32783e-189
-7.85615e-190
-4.60435e-190
-2.67388e-190
-1.53893e-190
-8.77958e-191
-4.96551e-191
-2.78445e-191
-1.54826e-191
-8.53723e-192
-4.66863e-192
-2.53217e-192
-1.36225e-192
-7.26963e-193
-3.84845e-193
-2.0212e-193
-1.05322e-193
-5.44561e-194
-2.79415e-194
-1.42299e-194
-7.19503e-195
-3.614e-195
-1.80538e-195
-8.99161e-196
-4.4883e-196
-2.27057e-196
-1.19004e-196
-6.70867e-197
-4.26141e-197
-3.1358e-197
-2.62733e-197
-2.38746e-197
-2.24688e-197
-2.13275e-197
-2.03103e-197
-1.9541e-197
-1.93502e-197
-8.03217e-185
-8.21492e-185
-8.41434e-185
-8.68911e-185
-9.03505e-185
-9.29922e-185
-9.37131e-185
-9.21482e-185
-8.84529e-185
-8.30527e-185
-7.64599e-185
-6.9166e-185
-6.159e-185
-5.40615e-185
-4.68243e-185
-4.00473e-185
-3.38383e-185
-2.82563e-185
-2.33224e-185
-1.90294e-185
-1.53491e-185
-1.22387e-185
-9.64627e-186
-7.51477e-186
-5.78572e-186
-4.40177e-186
-3.30873e-186
-2.45689e-186
-1.80186e-186
-1.30489e-186
-9.3293e-187
-6.58319e-187
-4.58369e-187
-3.14814e-187
-2.13208e-187
-1.42332e-187
-9.36164e-188
-6.06336e-188
-3.86404e-188
-2.41975e-188
-1.48536e-188
-9.01522e-189
-5.41333e-189
-3.21769e-189
-1.89414e-189
-1.10462e-189
-6.38356e-190
-3.65628e-190
-2.07591e-190
-1.16849e-190
-6.52136e-191
-3.609e-191
-1.98065e-191
-1.07805e-191
-5.8198e-192
-3.1164e-192
-1.65542e-192
-8.72389e-193
-4.56146e-193
-2.36669e-193
-1.21866e-193
-6.22899e-194
-3.1613e-194
-1.59375e-194
-7.98771e-195
-3.98562e-195
-1.98555e-195
-9.9331e-196
-5.04813e-196
-2.66371e-196
-1.51194e-196
-9.62901e-197
-7.05144e-197
-5.85158e-197
-5.27751e-197
-4.97171e-197
-4.78567e-197
-4.68692e-197
-4.69045e-197
-4.80699e-197
-1.42804e-184
-1.43625e-184
-1.44311e-184
-1.46799e-184
-1.51263e-184
-1.55636e-184
-1.57953e-184
-1.5718e-184
-1.53117e-184
-1.46094e-184
-1.36716e-184
-1.25675e-184
-1.13642e-184
-1.01207e-184
-8.88542e-185
-7.69593e-185
-6.57947e-185
-5.55428e-185
-4.63103e-185
-3.81421e-185
-3.10341e-185
-2.49452e-185
-1.98076e-185
-1.55363e-185
-1.20361e-185
-9.20857e-186
-6.9567e-186
-5.1885e-186
-3.81964e-186
-2.77492e-186
-1.98893e-186
-1.40608e-186
-9.8016e-187
-6.73491e-187
-4.55992e-187
-3.04083e-187
-1.99631e-187
-1.28942e-187
-8.1867e-188
-5.10156e-188
-3.11049e-188
-1.87607e-188
-1.11985e-188
-6.61841e-189
-3.87439e-189
-2.24717e-189
-1.29166e-189
-7.35902e-190
-4.15633e-190
-2.3274e-190
-1.29227e-190
-7.11535e-191
-3.88549e-191
-2.10446e-191
-1.13064e-191
-6.02617e-192
-3.18675e-192
-1.67225e-192
-8.70909e-193
-4.50245e-193
-2.31122e-193
-1.1784e-193
-5.97038e-194
-3.00791e-194
-1.50851e-194
-7.54485e-195
-3.77587e-195
-1.90266e-195
-9.76731e-196
-5.21547e-196
-2.99088e-196
-1.91045e-196
-1.38816e-196
-1.1347e-196
-1.00841e-196
-9.42486e-197
-9.09492e-197
-9.02282e-197
-9.19787e-197
-9.50834e-197
-2.16079e-184
-2.18226e-184
-2.20123e-184
-2.24436e-184
-2.31547e-184
-2.39222e-184
-2.44786e-184
-2.46412e-184
-2.43327e-184
-2.35584e-184
-2.23758e-184
-2.08705e-184
-1.91379e-184
-1.72707e-184
-1.53522e-184
-1.34522e-184
-1.16257e-184
-9.91364e-185
-8.34389e-185
-6.9328e-185
-5.68727e-185
-4.60651e-185
-3.68392e-185
-2.90866e-185
-2.26714e-185
-1.74426e-185
-1.32441e-185
-9.92277e-186
-7.33407e-186
-5.34634e-186
-3.84283e-186
-2.72269e-186
-1.90089e-186
-1.30728e-186
-8.85233e-187
-5.89965e-187
-3.86763e-187
-2.49241e-187
-1.57732e-187
-9.78561e-188
-5.9295e-188
-3.55535e-188
-2.11023e-188
-1.24033e-188
-7.22185e-189
-4.16667e-189
-2.38258e-189
-1.35052e-189
-7.58948e-190
-4.22897e-190
-2.3368e-190
-1.28063e-190
-6.96139e-191
-3.75395e-191
-2.00846e-191
-1.06632e-191
-5.61878e-192
-2.93912e-192
-1.52661e-192
-7.87605e-193
-4.0377e-193
-2.05791e-193
-1.04347e-193
-5.26886e-194
-2.65306e-194
-1.3352e-194
-6.74138e-195
-3.43712e-195
-1.79001e-195
-9.70504e-196
-5.6316e-196
-3.60569e-196
-2.59374e-196
-2.08163e-196
-1.81567e-196
-1.67491e-196
-1.60744e-196
-1.59506e-196
-1.62762e-196
-1.6757e-196
-2.87458e-184
-2.93463e-184
-3.00798e-184
-3.11613e-184
-3.25825e-184
-3.41009e-184
-3.53906e-184
-3.61797e-184
-3.63073e-184
-3.57229e-184
-3.4463e-184
-3.26223e-184
-3.03278e-184
-2.7718e-184
-2.49273e-184
-2.20764e-184
-1.92668e-184
-1.65785e-184
-1.40703e-184
-1.17817e-184
-9.73514e-185
-7.9386e-185
-6.38891e-185
-5.07432e-185
-3.97704e-185
-3.07552e-185
-2.34629e-185
-1.76547e-185
-1.30995e-185
-9.58184e-186
-6.90737e-186
-4.90571e-186
-3.43131e-186
-2.36271e-186
-1.6009e-186
-1.06684e-186
-6.98826e-187
-4.49623e-187
-2.83836e-187
-1.75462e-187
-1.05773e-187
-6.31058e-188
-3.72738e-188
-2.18042e-188
-1.26364e-188
-7.25724e-189
-4.13123e-189
-2.33145e-189
-1.30461e-189
-7.23941e-190
-3.98436e-190
-2.17525e-190
-1.17821e-190
-6.33246e-191
-3.37787e-191
-1.78866e-191
-9.40469e-192
-4.91161e-192
-2.54877e-192
-1.31481e-192
-6.74627e-193
-3.44546e-193
-1.75313e-193
-8.89832e-194
-4.51323e-194
-2.29344e-194
-1.17241e-194
-6.06919e-195
-3.21603e-195
-1.77388e-195
-1.04215e-195
-6.68364e-196
-4.75098e-196
-3.73061e-196
-3.17553e-196
-2.86771e-196
-2.70795e-196
-2.65474e-196
-2.68232e-196
-2.7408e-196
-3.39752e-184
-3.51525e-184
-3.68349e-184
-3.91608e-184
-4.20069e-184
-4.50581e-184
-4.78931e-184
-5.01051e-184
-5.13937e-184
-5.16002e-184
-5.07027e-184
-4.87895e-184
-4.60233e-184
-4.26069e-184
-3.87537e-184
-3.46667e-184
-3.05246e-184
-2.64747e-184
-2.26307e-184
-1.90736e-184
-1.58549e-184
-1.30008e-184
-1.05172e-184
-8.39371e-185
-6.60867e-185
-5.13251e-185
-3.93126e-185
-2.96911e-185
-2.21057e-185
-1.62197e-185
-1.17245e-185
-8.34656e-186
-5.84927e-186
-4.03355e-186
-2.7356e-186
-1.82373e-186
-1.19437e-186
-7.67777e-187
-4.83885e-187
-2.98365e-187
-1.79167e-187
-1.06487e-187
-6.26614e-188
-3.65197e-188
-2.10876e-188
-1.20678e-188
-6.84592e-189
-3.85058e-189
-2.14778e-189
-1.18823e-189
-6.52124e-190
-3.55109e-190
-1.91902e-190
-1.0294e-190
-5.48255e-191
-2.90006e-191
-1.52409e-191
-7.9611e-192
-4.13536e-192
-2.13744e-192
-1.10012e-192
-5.64344e-193
-2.8888e-193
-1.47782e-193
-7.57081e-194
-3.89531e-194
-2.02149e-194
-1.06497e-194
-5.75194e-195
-3.23081e-195
-1.92253e-195
-1.23535e-195
-8.67674e-196
-6.65452e-196
-5.50165e-196
-4.82518e-196
-4.43778e-196
-4.25509e-196
-4.22828e-196
-4.28386e-196
-3.54292e-184
-3.714e-184
-3.97934e-184
-4.37304e-184
-4.8783e-184
-5.45052e-184
-6.02586e-184
-6.53545e-184
-6.92057e-184
-7.14222e-184
-7.18411e-184
-7.05052e-184
-6.76139e-184
-6.34635e-184
-5.83934e-184
-5.27428e-184
-4.68215e-184
-4.08926e-184
-3.51651e-184
-2.97931e-184
-2.48806e-184
-2.04874e-184
-1.66372e-184
-1.33255e-184
-1.05269e-184
-8.20147e-185
-6.30085e-185
-4.77235e-185
-3.56269e-185
-2.62061e-185
-1.89869e-185
-1.35444e-185
-9.50888e-186
-6.56681e-186
-4.45867e-186
-2.97458e-186
-1.94858e-186
-1.25231e-186
-7.88615e-187
-4.8552e-187
-2.90819e-187
-1.72411e-187
-1.01198e-187
-5.88318e-188
-3.38884e-188
-1.93475e-188
-1.09509e-188
-6.14646e-189
-3.42174e-189
-1.88976e-189
-1.03561e-189
-5.63265e-190
-3.04135e-190
-1.63073e-190
-8.6856e-191
-4.59711e-191
-2.41897e-191
-1.2661e-191
-6.5958e-192
-3.42263e-192
-1.77068e-192
-9.14301e-193
-4.71857e-193
-2.43816e-193
-1.26428e-193
-6.59922e-194
-3.4825e-194
-1.86947e-194
-1.02988e-194
-5.89226e-195
-3.55226e-195
-2.28906e-195
-1.59102e-195
-1.19248e-195
-9.55529e-196
-8.09468e-196
-7.19539e-196
-6.69694e-196
-6.51473e-196
-6.5422e-196
-3.1961e-184
-3.36126e-184
-3.62041e-184
-4.11755e-184
-4.87553e-184
-5.84246e-184
-6.91163e-184
-7.95236e-184
-8.8427e-184
-9.49211e-184
-9.85104e-184
-9.90983e-184
-9.69059e-184
-9.23675e-184
-8.60266e-184
-7.84515e-184
-7.01762e-184
-6.16629e-184
-5.32852e-184
-4.53245e-184
-3.79756e-184
-3.13574e-184
-2.55264e-184
-2.049e-184
-1.62193e-184
-1.26607e-184
-9.74462e-185
-7.39397e-185
-5.5295e-185
-4.07429e-185
-2.95677e-185
-2.11251e-185
-1.48523e-185
-1.02702e-185
-6.98083e-186
-4.66128e-186
-3.05533e-186
-1.96413e-186
-1.23673e-186
-7.60968e-187
-4.5525e-187
-2.6955e-187
-1.58011e-187
-9.17446e-188
-5.2783e-188
-3.01011e-188
-1.70206e-188
-9.54539e-189
-5.31063e-189
-2.93185e-189
-1.60654e-189
-8.74012e-190
-4.72226e-190
-2.53477e-190
-1.35225e-190
-7.17309e-191
-3.78547e-191
-1.98871e-191
-1.04086e-191
-5.43205e-192
-2.82978e-192
-1.47337e-192
-7.6793e-193
-4.01443e-193
-2.11003e-193
-1.11868e-193
-6.008e-194
-3.28754e-194
-1.84704e-194
-1.07598e-194
-6.57189e-195
-4.25198e-195
-2.93185e-195
-2.15326e-195
-1.67396e-195
-1.36734e-195
-1.16978e-195
-1.05162e-195
-9.98187e-196
-9.93174e-196
-2.49046e-184
-2.47991e-184
-2.40429e-184
-2.72022e-184
-3.60995e-184
-5.05386e-184
-6.87577e-184
-8.81981e-184
-1.06295e-183
-1.21021e-183
-1.31133e-183
-1.36175e-183
-1.36334e-183
-1.32244e-183
-1.2478e-183
-1.14898e-183
-1.03514e-183
-9.14334e-184
-7.93112e-184
-6.76464e-184
-5.67883e-184
-4.69566e-184
-3.82634e-184
-3.07375e-184
-2.43465e-184
-1.90158e-184
-1.46447e-184
-1.11191e-184
-8.32109e-185
-6.13595e-185
-4.45668e-185
-3.18699e-185
-2.24273e-185
-1.55227e-185
-1.05607e-185
-7.0577e-186
-4.62964e-186
-2.97808e-186
-1.87603e-186
-1.15459e-186
-6.90689e-187
-4.08904e-187
-2.39672e-187
-1.39146e-187
-8.00525e-188
-4.56561e-188
-2.58223e-188
-1.44876e-188
-8.06561e-189
-4.45696e-189
-2.4453e-189
-1.33248e-189
-7.21407e-190
-3.88209e-190
-2.0774e-190
-1.10606e-190
-5.86287e-191
-3.09625e-191
-1.63053e-191
-8.57088e-192
-4.50242e-192
-2.36704e-192
-1.24751e-192
-6.60481e-193
-3.52184e-193
-1.89747e-193
-1.03722e-193
-5.78326e-194
-3.3112e-194
-1.96232e-194
-1.21388e-194
-7.89347e-195
-5.41427e-195
-3.91144e-195
-2.96052e-195
-2.33591e-195
-1.92246e-195
-1.6658e-195
-1.53962e-195
-1.51694e-195
-2.12971e-184
-1.56852e-184
-3.97108e-185
2.13795e-185
-3.36621e-185
-2.17253e-184
-5.02544e-184
-8.40682e-184
-1.17915e-183
-1.47454e-183
-1.69847e-183
-1.83809e-183
-1.89344e-183
-1.87358e-183
-1.79267e-183
-1.66679e-183
-1.51163e-183
-1.34104e-183
-1.16639e-183
-9.96313e-184
-8.36902e-184
-6.92008e-184
-5.63668e-184
-4.52513e-184
-3.58157e-184
-2.79526e-184
-2.15122e-184
-1.63238e-184
-1.22109e-184
-9.00207e-185
-6.53798e-185
-4.67589e-185
-3.29146e-185
-2.27915e-185
-1.55149e-185
-1.03758e-185
-6.81151e-186
-4.38525e-186
-2.76486e-186
-1.70311e-186
-1.01975e-186
-6.04254e-187
-3.54493e-187
-2.06005e-187
-1.18642e-187
-6.7745e-188
-3.83676e-188
-2.15601e-188
-1.2025e-188
-6.65906e-189
-3.66254e-189
-2.0015e-189
-1.0872e-189
-5.87285e-190
-3.15645e-190
-1.68899e-190
-9.00398e-191
-4.78609e-191
-2.53909e-191
-1.34588e-191
-7.13719e-192
-3.79231e-192
-2.02263e-192
-1.08518e-192
-5.87204e-193
-3.21488e-193
-1.7879e-193
-1.0149e-193
-5.91458e-194
-3.56151e-194
-2.2298e-194
-1.45816e-194
-9.9729e-195
-7.11488e-195
-5.26736e-195
-4.03129e-195
-3.19998e-195
-2.67412e-195
-2.40489e-195
-2.3449e-195
-3.95054e-184
-2.09999e-184
1.71123e-184
4.85699e-184
5.81323e-184
4.06411e-184
-2.84231e-186
-5.57155e-184
-1.15339e-183
-1.70286e-183
-2.145e-183
-2.44931e-183
-2.61059e-183
-2.64145e-183
-2.56477e-183
-2.40753e-183
-2.19642e-183
-1.95516e-183
-1.70314e-183
-1.45511e-183
-1.2214e-183
-1.00856e-183
-8.20043e-184
-6.57002e-184
-5.18909e-184
-4.04139e-184
-3.10409e-184
-2.3512e-184
-1.75603e-184
-1.29287e-184
-9.38021e-185
-6.70371e-185
-4.71683e-185
-3.26568e-185
-2.22336e-185
-1.4875e-185
-9.77154e-186
-6.29653e-186
-3.97433e-186
-2.45145e-186
-1.47033e-186
-8.72734e-187
-5.12905e-187
-2.98615e-187
-1.72318e-187
-9.86053e-188
-5.59763e-188
-3.15364e-188
-1.76396e-188
-9.79935e-189
-5.40882e-189
-2.96748e-189
-1.61901e-189
-8.78845e-190
-4.74929e-190
-2.55675e-190
-1.37222e-190
-7.34895e-191
-3.93127e-191
-2.10311e-191
-1.12669e-191
-6.05421e-192
-3.26905e-192
-1.77767e-192
-9.7604e-193
-5.42775e-193
-3.06843e-193
-1.77117e-193
-1.04908e-193
-6.40925e-194
-4.05731e-194
-2.66851e-194
-1.82282e-194
-1.28843e-194
-9.37207e-195
-6.99173e-195
-5.37574e-195
-4.34342e-195
-3.80281e-195
-3.66774e-195
-1.18796e-183
-7.37415e-184
1.98921e-184
1.08165e-183
1.57352e-183
1.53454e-183
1.00498e-183
1.41176e-184
-8.62581e-184
-1.83298e-183
-2.64755e-183
-3.24049e-183
-3.59437e-183
-3.72603e-183
-3.6723e-183
-3.47833e-183
-3.18929e-183
-2.84536e-183
-2.47934e-183
-2.11597e-183
-1.77247e-183
-1.45963e-183
-1.18309e-183
-9.44687e-184
-7.43571e-184
-5.77154e-184
-4.41864e-184
-3.33686e-184
-2.48542e-184
-1.82553e-184
-1.32181e-184
-9.43121e-185
-6.62786e-185
-4.58505e-185
-3.12039e-185
-2.08766e-185
-1.37197e-185
-8.84781e-186
-5.5915e-186
-3.4547e-186
-2.0768e-186
-1.23561e-186
-7.27947e-187
-4.24907e-187
-2.45868e-187
-1.41105e-187
-8.0356e-188
-4.54269e-188
-2.55038e-188
-1.42256e-188
-7.88673e-189
-4.3479e-189
-2.3847e-189
-1.30197e-189
-7.08042e-190
-3.83808e-190
-2.07551e-190
-1.12072e-190
-6.04928e-191
-3.26796e-191
-1.76943e-191
-9.61792e-192
-5.25818e-192
-2.89763e-192
-1.61364e-192
-9.10781e-193
-5.22836e-193
-3.06457e-193
-1.84194e-193
-1.13995e-193
-7.2879e-194
-4.81925e-194
-3.29086e-194
-2.30999e-194
-1.65692e-194
-1.21027e-194
-9.05383e-195
-7.09632e-195
-6.05686e-195
-5.77714e-195
-3.35346e-183
-2.39492e-183
-3.78551e-184
1.65338e-183
3.01548e-183
3.38766e-183
2.79802e-183
1.51067e-183
-1.21265e-184
-1.77188e-183
-3.20425e-183
-4.28531e-183
-4.97201e-183
-5.28566e-183
-5.28538e-183
-5.04638e-183
-4.64466e-183
-4.14777e-183
-3.61055e-183
-3.07401e-183
-2.56634e-183
-2.1049e-183
-1.69859e-183
-1.35004e-183
-1.05765e-183
-8.1716e-184
-6.22839e-184
-4.68394e-184
-3.47541e-184
-2.54389e-184
-1.83642e-184
-1.30698e-184
-9.16616e-185
-6.33134e-185
-4.30452e-185
-2.87853e-185
-1.89185e-185
-1.2208e-185
-7.72414e-186
-4.78103e-186
-2.88182e-186
-1.71937e-186
-1.01594e-186
-5.94861e-187
-3.45354e-187
-1.98905e-187
-1.13703e-187
-6.45414e-188
-3.63947e-188
-2.03969e-188
-1.13661e-188
-6.30076e-189
-3.47648e-189
-1.91032e-189
-1.04613e-189
-5.71346e-190
-3.11477e-190
-1.69664e-190
-9.24423e-191
-5.04454e-191
-2.761e-191
-1.51816e-191
-8.40208e-192
-4.69036e-192
-2.64751e-192
-1.51532e-192
-8.82256e-193
-5.24365e-193
-3.19302e-193
-1.99864e-193
-1.28881e-193
-8.56323e-194
-5.84734e-194
-4.08189e-194
-2.89447e-194
-2.07716e-194
-1.51761e-194
-1.15759e-194
-9.64747e-195
-9.10081e-195
-8.28747e-183
-6.40168e-183
-2.38812e-183
1.82597e-183
4.926e-183
6.2481e-183
5.77128e-183
3.92951e-183
1.34621e-183
-1.38493e-183
-3.82189e-183
-5.70805e-183
-6.9505e-183
-7.57426e-183
-7.67412e-183
-7.3749e-183
-6.80363e-183
-6.07306e-183
-5.27404e-183
-4.47376e-183
-3.71773e-183
-3.03335e-183
-2.4341e-183
-1.9234e-183
-1.49803e-183
-1.15074e-183
-8.72221e-184
-6.52479e-184
-4.81756e-184
-3.51055e-184
-2.52416e-184
-1.79025e-184
-1.25194e-184
-8.62779e-185
-5.85609e-185
-3.91212e-185
-2.57022e-185
-1.65906e-185
-1.05078e-185
-6.51585e-186
-3.9388e-186
-2.3572e-186
-1.39737e-186
-8.21062e-187
-4.78459e-187
-2.76666e-187
-1.5883e-187
-9.05698e-188
-5.13228e-188
-2.89144e-188
-1.62034e-188
-9.03659e-189
-5.01829e-189
-2.77669e-189
-1.53186e-189
-8.43274e-190
-4.63622e-190
-2.54822e-190
-1.40178e-190
-7.72761e-191
-4.27526e-191
-2.37759e-191
-1.33158e-191
-7.52587e-192
-4.30252e-192
-2.49468e-192
-1.47132e-192
-8.85447e-193
-5.45414e-193
-3.44768e-193
-2.23957e-193
-1.49397e-193
-1.02002e-193
-7.08644e-194
-4.97546e-194
-3.5161e-194
-2.51591e-194
-1.87236e-194
-1.526e-194
-1.42416e-194
-1.84556e-182
-1.49314e-182
-7.35199e-183
8.33014e-184
7.20483e-183
1.04712e-182
1.04886e-182
7.95535e-183
3.94752e-183
-4.80947e-184
-4.52915e-183
-7.72039e-183
-9.86923e-183
-1.10019e-182
-1.12702e-182
-1.08808e-182
-1.00448e-182
-8.9493e-183
-7.74348e-183
-6.53643e-183
-5.40066e-183
-4.37866e-183
-3.49018e-183
-2.73899e-183
-2.11855e-183
-1.61635e-183
-1.21705e-183
-9.04707e-184
-6.64043e-184
-4.81251e-184
-3.44327e-184
-2.43152e-184
-1.69406e-184
-1.16391e-184
-7.88142e-185
-5.25656e-185
-3.45049e-185
-2.22708e-185
-1.41159e-185
-8.76791e-186
-5.31554e-186
-3.19116e-186
-1.89822e-186
-1.11947e-186
-6.54942e-187
-3.80332e-187
-2.19341e-187
-1.25687e-187
-7.15953e-188
-4.05613e-188
-2.2866e-188
-1.28336e-188
-7.17533e-189
-3.99891e-189
-2.2231e-189
-1.23378e-189
-6.84181e-190
-3.79485e-190
-2.10767e-190
-1.17367e-190
-6.56217e-191
-3.68977e-191
-2.09014e-191
-1.19522e-191
-6.91482e-192
-4.05743e-192
-2.42115e-192
-1.47334e-192
-9.1673e-193
-5.84395e-193
-3.81948e-193
-2.55588e-193
-1.74422e-193
-1.20624e-193
-8.39273e-194
-5.84881e-194
-4.10611e-194
-2.98688e-194
-2.38371e-194
-2.20203e-194
-3.81053e-182
-3.17525e-182
-1.79661e-182
-2.77022e-183
9.5191e-183
1.64967e-182
1.77586e-182
1.44134e-182
8.28559e-183
1.20836e-183
-5.40112e-183
-1.06829e-182
-1.42861e-182
-1.62323e-182
-1.67656e-182
-1.62266e-182
-1.49653e-182
-1.32897e-182
-1.14436e-182
-9.60248e-183
-7.8807e-183
-6.34308e-183
-5.01764e-183
-3.90715e-183
-2.99854e-183
-2.2701e-183
-1.69647e-183
-1.25199e-183
-9.12674e-184
-6.57237e-184
-4.67508e-184
-3.28419e-184
-2.27773e-184
-1.55892e-184
-1.05238e-184
-7.00294e-185
-4.59021e-185
-2.96102e-185
-1.87746e-185
-1.16782e-185
-7.09943e-186
-4.27525e-186
-2.55176e-186
-1.5105e-186
-8.87292e-187
-5.17513e-187
-2.99859e-187
-1.72693e-187
-9.89023e-188
-5.63548e-188
-3.19647e-188
-1.80576e-188
-1.01661e-188
-5.70741e-189
-3.19758e-189
-1.78917e-189
-1.00074e-189
-5.60104e-190
-3.14036e-190
-1.76605e-190
-9.97566e-191
-5.66857e-191
-3.24598e-191
-1.87666e-191
-1.09777e-191
-6.512e-192
-3.92702e-192
-2.41339e-192
-1.51487e-192
-9.7265e-193
-6.389e-193
-4.2851e-193
-2.92148e-193
-2.01103e-193
-1.38707e-193
-9.53938e-194
-6.57775e-194
-4.68272e-194
-3.66366e-194
-3.35277e-194
-7.44257e-182
-6.32727e-182
-3.88828e-182
-1.15807e-182
1.11099e-182
2.48568e-182
2.875e-182
2.45315e-182
1.5255e-182
4.05706e-183
-6.60191e-183
-1.52064e-182
-2.11172e-182
-2.43409e-182
-2.52708e-182
-2.44679e-182
-2.25091e-182
-1.99e-182
-1.70362e-182
-1.41984e-182
-1.15654e-182
-9.23456e-183
-7.24427e-183
-5.59314e-183
-4.25585e-183
-3.19471e-183
-2.36766e-183
-1.73334e-183
-1.25393e-183
-8.96502e-184
-6.3347e-184
-4.42326e-184
-3.05133e-184
-2.07879e-184
-1.39799e-184
-9.2752e-185
-6.06706e-185
-3.90931e-185
-2.47848e-185
-1.54325e-185
-9.40501e-186
-5.67991e-186
-3.40115e-186
-2.02057e-186
-1.19163e-186
-6.98032e-187
-4.06351e-187
-2.35204e-187
-1.35432e-187
-7.76157e-188
-4.42953e-188
-2.51873e-188
-1.42784e-188
-8.07488e-189
-4.55891e-189
-2.5716e-189
-1.45061e-189
-8.19095e-190
-4.63486e-190
-2.63141e-190
-1.501e-190
-8.61514e-191
-4.98371e-191
-2.91096e-191
-1.72017e-191
-1.03059e-191
-6.27399e-192
-3.8895e-192
-2.46005e-192
-1.58912e-192
-1.04804e-192
-7.0397e-193
-4.79228e-193
-3.28267e-193
-2.24453e-193
-1.52382e-193
-1.03263e-193
-7.20126e-194
-5.53059e-194
-5.0201e-194
-1.3943e-181
-1.20236e-181
-7.7988e-182
-3.01266e-182
1.04656e-182
3.61769e-182
4.51638e-182
4.0148e-182
2.61891e-182
8.58478e-183
-8.45817e-183
-2.23184e-182
-3.18643e-182
-3.70696e-182
-3.857e-182
-3.7288e-182
-3.41722e-182
-3.00484e-182
-2.55561e-182
-2.11419e-182
-1.70831e-182
-1.35245e-182
-1.05162e-182
-8.0463e-183
-6.06693e-183
-4.51308e-183
-3.315e-183
-2.40588e-183
-1.72598e-183
-1.22427e-183
-8.58702e-184
-5.95538e-184
-4.08322e-184
-2.76692e-184
-1.85233e-184
-1.22447e-184
-7.9877e-185
-5.138e-185
-3.25532e-185
-2.02807e-185
-1.23851e-185
-7.49843e-186
-4.50332e-186
-2.68435e-186
-1.58905e-186
-9.34685e-187
-5.46579e-187
-3.17923e-187
-1.84029e-187
-1.06064e-187
-6.08964e-188
-3.48495e-188
-1.98901e-188
-1.13292e-188
-6.44448e-189
-3.66395e-189
-2.08384e-189
-1.18674e-189
-6.77467e-190
-3.88136e-190
-2.23466e-190
-1.29477e-190
-7.56151e-191
-4.45868e-191
-2.65942e-191
-1.60771e-191
-9.87058e-192
-6.16637e-192
-3.92584e-192
-2.54886e-192
-1.68629e-192
-1.13354e-192
-7.70075e-193
-5.24726e-193
-3.55611e-193
-2.38333e-193
-1.58783e-193
-1.08578e-193
-8.20071e-194
-7.39727e-194
-2.53007e-181
-2.20471e-181
-1.48475e-181
-6.61406e-182
4.77706e-183
5.11579e-182
6.94962e-182
6.40322e-182
4.30852e-182
1.55117e-182
-1.1584e-182
-3.37349e-182
-4.89817e-182
-5.72357e-182
-5.95282e-182
-5.73739e-182
-5.2328e-182
-4.57354e-182
-3.86259e-182
-3.1707e-182
-2.54069e-182
-1.99382e-182
-1.53625e-182
-1.16451e-182
-8.69782e-183
-6.40926e-183
-4.66392e-183
-3.35398e-183
-2.38487e-183
-1.67733e-183
-1.16708e-183
-8.03406e-184
-5.47116e-184
-3.68506e-184
-2.45409e-184
-1.61521e-184
-1.05008e-184
-6.7385e-185
-4.26395e-185
-2.65641e-185
-1.6247e-185
-9.85664e-186
-5.93451e-186
-3.54799e-186
-2.10746e-186
-1.24437e-186
-7.30758e-187
-4.27023e-187
-2.48424e-187
-1.43953e-187
-8.31291e-188
-4.78663e-188
-2.74981e-188
-1.57707e-188
-9.03605e-189
-5.17631e-189
-2.96721e-189
-1.70363e-189
-9.80735e-190
-5.66733e-190
-3.29154e-190
-1.92402e-190
-1.13359e-190
-6.74283e-191
-4.05616e-191
-2.47208e-191
-1.52926e-191
-9.6183e-192
-6.15823e-192
-4.01509e-192
-2.6626e-192
-1.79e-192
-1.21292e-192
-8.2181e-193
-5.51875e-193
-3.65105e-193
-2.39231e-193
-1.60637e-193
-1.19673e-193
-1.07591e-193
-4.47844e-181
-3.93344e-181
-2.72206e-181
-1.32635e-181
-1.09661e-182
7.05219e-182
1.05437e-181
1.0038e-181
6.89501e-182
2.58335e-182
-1.70915e-182
-5.23046e-182
-7.64712e-182
-8.93918e-182
-9.27457e-182
-8.90165e-182
-8.07477e-182
-7.01229e-182
-5.87966e-182
-4.7886e-182
-3.80496e-182
-2.95966e-182
-2.25958e-182
-1.69673e-182
-1.25522e-182
-9.16078e-183
-6.60247e-183
-4.7033e-183
-3.31354e-183
-2.30979e-183
-1.59354e-183
-1.08825e-183
-7.35648e-184
-4.92193e-184
-3.25853e-184
-2.13393e-184
-1.38167e-184
-8.83932e-185
-5.58256e-185
-3.47562e-185
-2.12767e-185
-1.29269e-185
-7.79851e-186
-4.67397e-186
-2.78448e-186
-1.64971e-186
-9.72507e-187
-5.70702e-187
-3.33556e-187
-1.94259e-187
-1.1279e-187
-6.53224e-188
-3.77581e-188
-2.17964e-188
-1.25742e-188
-7.25478e-189
-4.18965e-189
-2.42402e-189
-1.40649e-189
-8.19327e-190
-4.79752e-190
-2.82736e-190
-1.67943e-190
-1.00697e-190
-6.10435e-191
-3.74767e-191
-2.33399e-191
-1.47668e-191
-9.50051e-192
-6.21561e-192
-4.12881e-192
-2.77436e-192
-1.87416e-192
-1.26215e-192
-8.39605e-193
-5.48276e-193
-3.53567e-193
-2.33693e-193
-1.72565e-193
-1.5532e-193
-7.77383e-181
-6.86934e-181
-4.85151e-181
-2.51276e-181
-4.54663e-182
9.48881e-182
1.58475e-181
1.55578e-181
1.08331e-181
4.09232e-182
-2.69441e-182
-8.27318e-182
-1.20841e-181
-1.40886e-181
-1.45607e-181
-1.39071e-181
-1.25428e-181
-1.08216e-181
-9.00866e-182
-7.28017e-182
-5.73708e-182
-4.4239e-182
-3.34705e-182
-2.49001e-182
-1.82465e-182
-1.3189e-182
-9.41448e-183
-6.64249e-183
-4.63582e-183
-3.20199e-183
-2.18966e-183
-1.48286e-183
-9.94574e-184
-6.60655e-184
-4.34563e-184
-2.82983e-184
-1.82362e-184
-1.16235e-184
-7.3219e-185
-4.55245e-185
-2.78747e-185
-1.69491e-185
-1.0239e-185
-6.14827e-186
-3.67154e-186
-2.18149e-186
-1.29026e-186
-7.60012e-187
-4.46053e-187
-2.60966e-187
-1.52274e-187
-8.86617e-188
-5.15419e-188
-2.99335e-188
-1.73787e-188
-1.00937e-188
-5.86963e-189
-3.42037e-189
-1.9992e-189
-1.17332e-189
-6.92218e-190
-4.11034e-190
-2.45976e-190
-1.48561e-190
-9.06903e-191
-5.6044e-191
-3.5112e-191
-2.23299e-191
-1.44258e-191
-9.46426e-192
-6.29365e-192
-4.2248e-192
-2.84396e-192
-1.90294e-192
-1.25364e-192
-8.08158e-193
-5.13574e-193
-3.35515e-193
-2.47468e-193
-2.24399e-193
-1.32862e-180
-1.1796e-180
-8.46166e-181
-4.57843e-181
-1.13562e-181
1.24524e-181
2.36828e-181
2.39399e-181
1.68134e-181
6.26661e-182
-4.45423e-182
-1.32749e-181
-1.92649e-181
-2.23562e-181
-2.29959e-181
-2.1849e-181
-1.95912e-181
-1.67948e-181
-1.38841e-181
-1.11364e-181
-8.70631e-182
-6.65746e-182
-4.9931e-182
-3.68116e-182
-2.67264e-182
-1.91373e-182
-1.35312e-182
-9.45673e-183
-6.53796e-183
-4.4742e-183
-3.03226e-183
-2.03584e-183
-1.35436e-183
-8.92832e-184
-5.83224e-184
-3.77453e-184
-2.41953e-184
-1.53549e-184
-9.64087e-185
-5.98215e-185
-3.66097e-185
-2.22626e-185
-1.34579e-185
-8.09105e-186
-4.84014e-186
-2.88227e-186
-1.70936e-186
-1.01006e-186
-5.94944e-187
-3.49473e-187
-2.04819e-187
-1.19829e-187
-7.00204e-188
-4.08894e-188
-2.38778e-188
-1.39533e-188
-8.16572e-189
-4.78968e-189
-2.81846e-189
-1.66549e-189
-9.8938e-190
-5.91536e-190
-3.56399e-190
-2.16672e-190
-1.33102e-190
-8.27351e-191
-5.21076e-191
-3.32878e-191
-2.15803e-191
-1.41895e-191
-9.44146e-192
-6.32873e-192
-4.24364e-192
-2.82032e-192
-1.83978e-192
-1.17137e-192
-7.35288e-193
-4.77951e-193
-3.56136e-193
-3.27993e-193
-2.24273e-180
-1.99863e-180
-1.45114e-180
-8.11074e-181
-2.4022e-181
1.58875e-181
3.52863e-181
3.66847e-181
2.58886e-181
9.36386e-182
-7.5695e-182
-2.1502e-181
-3.09007e-181
-3.56499e-181
-3.64806e-181
-3.44778e-181
-3.074e-181
-2.6191e-181
-2.1509e-181
-1.71305e-181
-1.3292e-181
-1.00837e-181
-7.50033e-182
-5.48222e-182
-3.94512e-182
-2.79938e-182
-1.96119e-182
-1.358e-182
-9.30208e-183
-6.30773e-183
-4.23667e-183
-2.81982e-183
-1.86034e-183
-1.21679e-183
-7.89081e-184
-5.07323e-184
-3.23318e-184
-2.04181e-184
-1.27702e-184
-7.90248e-185
-4.83009e-185
-2.93531e-185
-1.77432e-185
-1.06728e-185
-6.39121e-186
-3.81182e-186
-2.26524e-186
-1.34188e-186
-7.92718e-187
-4.67219e-187
-2.74864e-187
-1.61481e-187
-9.47882e-188
-5.56236e-188
-3.26512e-188
-1.91851e-188
-1.1292e-188
-6.66284e-189
-3.94466e-189
-2.34546e-189
-1.40203e-189
-8.43472e-190
-5.11297e-190
-3.12682e-190
-1.9316e-190
-1.20691e-190
-7.6365e-191
-4.89746e-191
-3.18436e-191
-2.0974e-191
-1.3958e-191
-9.33936e-192
-6.23605e-192
-4.11558e-192
-2.65857e-192
-1.67356e-192
-1.04176e-192
-6.80567e-193
-5.20096e-193
-4.90848e-193
-3.74816e-180
-3.35015e-180
-2.45577e-180
-1.40693e-180
-4.67051e-181
1.95705e-181
5.2528e-181
5.61038e-181
3.96688e-181
1.37334e-181
-1.30219e-181
-3.50221e-181
-4.97581e-181
-5.70399e-181
-5.80619e-181
-5.45917e-181
-4.84115e-181
-4.10107e-181
-3.34723e-181
-2.64834e-181
-2.04057e-181
-1.53663e-181
-1.13412e-181
-8.22297e-182
-5.86817e-182
-4.12834e-182
-2.867e-182
-1.96766e-182
-1.33583e-182
-8.9779e-183
-5.97728e-183
-3.94419e-183
-2.58054e-183
-1.67449e-183
-1.07781e-183
-6.88202e-184
-4.35887e-184
-2.73794e-184
-1.70482e-184
-1.05148e-184
-6.41411e-185
-3.89259e-185
-2.35111e-185
-1.4139e-185
-8.4694e-186
-5.05541e-186
-3.00819e-186
-1.78516e-186
-1.05694e-186
-6.24614e-187
-3.68594e-187
-2.17302e-187
-1.28048e-187
-7.54576e-188
-4.44948e-188
-2.62702e-188
-1.55406e-188
-9.21814e-189
-5.48717e-189
-3.28071e-189
-1.97203e-189
-1.19298e-189
-7.27102e-190
-4.46994e-190
-2.77504e-190
-1.74184e-190
-1.10658e-190
-7.12063e-191
-4.64135e-191
-3.0611e-191
-2.03678e-191
-1.35998e-191
-9.04077e-192
-5.92468e-192
-3.7915e-192
-2.36431e-192
-1.46848e-192
-9.77665e-193
-7.7971e-193
-7.59821e-193
-6.21389e-180
-5.56732e-180
-4.11222e-180
-2.40162e-180
-8.62882e-181
2.29574e-181
7.82475e-181
8.57701e-181
6.06242e-181
1.98447e-181
-2.24562e-181
-5.72012e-181
-8.03048e-181
-9.14628e-181
-9.26239e-181
-8.66635e-181
-7.64679e-181
-6.44351e-181
-5.22938e-181
-4.11254e-181
-3.14844e-181
-2.35483e-181
-1.72561e-181
-1.24184e-181
-8.79359e-182
-6.13703e-182
-4.22707e-182
-2.87688e-182
-1.93661e-182
-1.29054e-182
-8.51954e-183
-5.5749e-183
-3.61777e-183
-2.32909e-183
-1.48795e-183
-9.4344e-184
-5.9372e-184
-3.70808e-184
-2.29767e-184
-1.41165e-184
-8.58868e-185
-5.20158e-185
-3.13702e-185
-1.88471e-185
-1.12847e-185
-6.7363e-186
-4.01062e-186
-2.38248e-186
-1.4127e-186
-8.36458e-187
-4.94767e-187
-2.92488e-187
-1.72892e-187
-1.02239e-187
-6.05173e-188
-3.58769e-188
-2.13161e-188
-1.27019e-188
-7.59676e-189
-4.56403e-189
-2.75687e-189
-1.6759e-189
-1.02633e-189
-6.33863e-190
-3.95231e-190
-2.49071e-190
-1.5879e-190
-1.02474e-190
-6.69326e-191
-4.41878e-191
-2.93891e-191
-1.95795e-191
-1.29578e-191
-8.43345e-192
-5.35155e-192
-3.3163e-192
-2.07352e-192
-1.43137e-192
-1.21073e-192
-1.22288e-192
-1.02348e-179
-9.18754e-180
-6.82798e-180
-4.04866e-180
-1.54091e-180
2.49201e-181
1.16774e-180
1.31221e-180
9.25557e-181
2.83213e-181
-3.86093e-181
-9.35073e-181
-1.29748e-180
-1.46852e-180
-1.47995e-180
-1.37845e-180
-1.21071e-180
-1.01527e-180
-8.19743e-181
-6.41144e-181
-4.87984e-181
-3.62728e-181
-2.64078e-181
-1.88749e-181
-1.32707e-181
-9.19343e-182
-6.28429e-182
-4.24383e-182
-2.83425e-182
-1.87365e-182
-1.22701e-182
-7.9653e-183
-5.12849e-183
-3.27647e-183
-2.0778e-183
-1.30825e-183