/*--------------------------------*- C++ -*----------------------------------*\
  =========                 |
  \\      /  F ield         | OpenFOAM: The Open Source CFD Toolbox
   \\    /   O peration     | Website:  https://openfoam.org
    \\  /    A nd           | Version:  11
     \\/     M anipulation  |
\*---------------------------------------------------------------------------*/
FoamFile
{
    format      ascii;
    class       volScalarField;
    location    "1587";
    object      p;
}
// * * * * * * * * * * * * * * * * * * * * * * * * * * * * * * * * * * * * * //

dimensions      [0 2 -2 0 0 0 0];

internalField   nonuniform List<scalar> 
440320
(
0.546517
0.542391
0.539486
0.537809
0.536698
0.535878
0.535261
0.534793
0.534433
0.534151
0.533926
0.533744
0.533594
0.533469
0.533363
0.533272
0.533194
0.533125
0.533065
0.533012
0.532964
0.532922
0.532884
0.53285
0.532819
0.532792
0.532767
0.532744
0.532724
0.532707
0.532691
0.532677
0.532665
0.532654
0.532645
0.532638
0.532632
0.532628
0.532625
0.532624
0.532624
0.532625
0.532628
0.532632
0.532638
0.532645
0.532654
0.532665
0.532677
0.532691
0.532707
0.532724
0.532744
0.532767
0.532792
0.532819
0.53285
0.532884
0.532922
0.532964
0.533012
0.533065
0.533125
0.533194
0.533272
0.533363
0.533469
0.533594
0.533744
0.533926
0.534151
0.534433
0.534793
0.535261
0.535878
0.536698
0.537809
0.539486
0.542391
0.546517
0.537213
0.536977
0.536569
0.536106
0.535661
0.535258
0.534905
0.534602
0.534344
0.534124
0.533937
0.533777
0.533639
0.533521
0.533418
0.533327
0.533248
0.533179
0.533117
0.533061
0.533012
0.532968
0.532928
0.532893
0.532861
0.532832
0.532806
0.532783
0.532762
0.532743
0.532727
0.532712
0.532699
0.532689
0.532679
0.532672
0.532666
0.532661
0.532658
0.532657
0.532657
0.532658
0.532661
0.532666
0.532672
0.532679
0.532689
0.532699
0.532712
0.532727
0.532743
0.532762
0.532783
0.532806
0.532832
0.532861
0.532893
0.532928
0.532968
0.533012
0.533061
0.533117
0.533179
0.533248
0.533327
0.533418
0.533521
0.533639
0.533777
0.533937
0.534124
0.534344
0.534602
0.534905
0.535258
0.535661
0.536106
0.536569
0.536977
0.537213
0.534914
0.535114
0.535211
0.53513
0.534961
0.534764
0.534562
0.534369
0.534188
0.534024
0.533876
0.533743
0.533625
0.53352
0.533427
0.533343
0.533269
0.533202
0.533142
0.533089
0.53304
0.532997
0.532957
0.532922
0.53289
0.532861
0.532835
0.532811
0.53279
0.532772
0.532755
0.53274
0.532727
0.532716
0.532707
0.532699
0.532693
0.532689
0.532686
0.532684
0.532684
0.532686
0.532689
0.532693
0.532699
0.532707
0.532716
0.532727
0.53274
0.532755
0.532772
0.53279
0.532811
0.532835
0.532861
0.53289
0.532922
0.532957
0.532997
0.53304
0.533089
0.533142
0.533202
0.533269
0.533343
0.533427
0.53352
0.533625
0.533743
0.533876
0.534024
0.534188
0.534369
0.534562
0.534764
0.534961
0.53513
0.535211
0.535114
0.534914
0.534016
0.534209
0.534352
0.534385
0.534346
0.53427
0.534173
0.534065
0.533955
0.533846
0.533742
0.533643
0.533552
0.533467
0.53339
0.533319
0.533254
0.533195
0.533141
0.533092
0.533047
0.533006
0.532969
0.532935
0.532905
0.532877
0.532852
0.532829
0.532808
0.53279
0.532774
0.532759
0.532747
0.532736
0.532727
0.532719
0.532713
0.532709
0.532706
0.532704
0.532704
0.532706
0.532709
0.532713
0.532719
0.532727
0.532736
0.532747
0.532759
0.532774
0.53279
0.532808
0.532829
0.532852
0.532877
0.532905
0.532935
0.532969
0.533006
0.533047
0.533092
0.533141
0.533195
0.533254
0.533319
0.53339
0.533467
0.533552
0.533643
0.533742
0.533846
0.533955
0.534065
0.534173
0.53427
0.534346
0.534385
0.534352
0.534209
0.534016
0.533546
0.533695
0.533822
0.533886
0.533901
0.533884
0.533846
0.533792
0.533729
0.533661
0.533592
0.533522
0.533455
0.53339
0.533329
0.533272
0.533218
0.533167
0.533121
0.533078
0.533038
0.533001
0.532968
0.532937
0.532908
0.532882
0.532859
0.532837
0.532818
0.532801
0.532785
0.532772
0.532759
0.532749
0.53274
0.532733
0.532727
0.532723
0.53272
0.532719
0.532719
0.53272
0.532723
0.532727
0.532733
0.53274
0.532749
0.532759
0.532772
0.532785
0.532801
0.532818
0.532837
0.532859
0.532882
0.532908
0.532937
0.532968
0.533001
0.533038
0.533078
0.533121
0.533167
0.533218
0.533272
0.533329
0.53339
0.533455
0.533522
0.533592
0.533661
0.533729
0.533792
0.533846
0.533884
0.533901
0.533886
0.533822
0.533695
0.533546
0.533273
0.533383
0.533484
0.533548
0.533581
0.533591
0.533582
0.53356
0.533527
0.533487
0.533443
0.533397
0.533349
0.533302
0.533255
0.53321
0.533167
0.533126
0.533087
0.533051
0.533017
0.532985
0.532955
0.532928
0.532902
0.532879
0.532858
0.532838
0.53282
0.532804
0.53279
0.532777
0.532766
0.532756
0.532748
0.532741
0.532735
0.532731
0.532729
0.532727
0.532727
0.532729
0.532731
0.532735
0.532741
0.532748
0.532756
0.532766
0.532777
0.53279
0.532804
0.53282
0.532838
0.532858
0.532879
0.532902
0.532928
0.532955
0.532985
0.533017
0.533051
0.533087
0.533126
0.533167
0.53321
0.533255
0.533302
0.533349
0.533397
0.533443
0.533487
0.533527
0.53356
0.533582
0.533591
0.533581
0.533548
0.533484
0.533383
0.533273
0.533097
0.533178
0.533257
0.533312
0.533348
0.533368
0.533374
0.533369
0.533355
0.533334
0.533307
0.533277
0.533245
0.533211
0.533177
0.533143
0.533109
0.533077
0.533045
0.533015
0.532987
0.53296
0.532934
0.532911
0.532888
0.532868
0.532849
0.532831
0.532815
0.532801
0.532788
0.532776
0.532766
0.532757
0.532749
0.532743
0.532738
0.532734
0.532732
0.53273
0.53273
0.532732
0.532734
0.532738
0.532743
0.532749
0.532757
0.532766
0.532776
0.532788
0.532801
0.532815
0.532831
0.532849
0.532868
0.532888
0.532911
0.532934
0.53296
0.532987
0.533015
0.533045
0.533077
0.533109
0.533143
0.533177
0.533211
0.533245
0.533277
0.533307
0.533334
0.533355
0.533369
0.533374
0.533368
0.533348
0.533312
0.533257
0.533178
0.533097
0.532973
0.533034
0.533095
0.533142
0.533175
0.533198
0.53321
0.533214
0.533211
0.533201
0.533186
0.533168
0.533147
0.533124
0.533099
0.533074
0.533049
0.533023
0.532999
0.532974
0.532951
0.532929
0.532907
0.532887
0.532868
0.53285
0.532834
0.532819
0.532805
0.532792
0.53278
0.53277
0.53276
0.532752
0.532746
0.53274
0.532735
0.532732
0.53273
0.532729
0.532729
0.53273
0.532732
0.532735
0.53274
0.532746
0.532752
0.53276
0.53277
0.53278
0.532792
0.532805
0.532819
0.532834
0.53285
0.532868
0.532887
0.532907
0.532929
0.532951
0.532974
0.532999
0.533023
0.533049
0.533074
0.533099
0.533124
0.533147
0.533168
0.533186
0.533201
0.533211
0.533214
0.53321
0.533198
0.533175
0.533142
0.533095
0.533034
0.532973
0.532881
0.532927
0.532976
0.533014
0.533044
0.533066
0.53308
0.533088
0.533091
0.533088
0.533081
0.53307
0.533057
0.533042
0.533025
0.533007
0.532988
0.532969
0.532949
0.53293
0.532912
0.532893
0.532876
0.532859
0.532843
0.532828
0.532814
0.532801
0.532789
0.532778
0.532768
0.532759
0.53275
0.532743
0.532737
0.532732
0.532728
0.532725
0.532723
0.532722
0.532722
0.532723
0.532725
0.532728
0.532732
0.532737
0.532743
0.53275
0.532759
0.532768
0.532778
0.532789
0.532801
0.532814
0.532828
0.532843
0.532859
0.532876
0.532893
0.532912
0.53293
0.532949
0.532969
0.532988
0.533007
0.533025
0.533042
0.533057
0.53307
0.533081
0.533088
0.533091
0.533088
0.53308
0.533066
0.533044
0.533014
0.532976
0.532927
0.532881
0.532809
0.532845
0.532884
0.532915
0.532941
0.53296
0.532975
0.532985
0.53299
0.532992
0.532989
0.532984
0.532976
0.532967
0.532955
0.532942
0.532929
0.532914
0.5329
0.532885
0.53287
0.532856
0.532842
0.532828
0.532815
0.532802
0.532791
0.53278
0.532769
0.53276
0.532751
0.532743
0.532736
0.53273
0.532725
0.53272
0.532717
0.532714
0.532712
0.532712
0.532712
0.532712
0.532714
0.532717
0.53272
0.532725
0.53273
0.532736
0.532743
0.532751
0.53276
0.532769
0.53278
0.532791
0.532802
0.532815
0.532828
0.532842
0.532856
0.53287
0.532885
0.5329
0.532914
0.532929
0.532942
0.532955
0.532967
0.532976
0.532984
0.532989
0.532992
0.53299
0.532985
0.532975
0.53296
0.532941
0.532915
0.532884
0.532845
0.532809
0.532751
0.53278
0.53281
0.532836
0.532858
0.532875
0.532889
0.532899
0.532906
0.532909
0.53291
0.532908
0.532904
0.532898
0.532891
0.532882
0.532872
0.532862
0.532851
0.53284
0.532828
0.532817
0.532806
0.532795
0.532784
0.532774
0.532764
0.532755
0.532746
0.532738
0.532731
0.532724
0.532719
0.532713
0.532709
0.532705
0.532702
0.5327
0.532698
0.532697
0.532697
0.532698
0.5327
0.532702
0.532705
0.532709
0.532713
0.532719
0.532724
0.532731
0.532738
0.532746
0.532755
0.532764
0.532774
0.532784
0.532795
0.532806
0.532817
0.532828
0.53284
0.532851
0.532862
0.532872
0.532882
0.532891
0.532898
0.532904
0.532908
0.53291
0.532909
0.532906
0.532899
0.532889
0.532875
0.532858
0.532836
0.53281
0.53278
0.532751
0.532702
0.532725
0.53275
0.532771
0.532789
0.532804
0.532817
0.532827
0.532834
0.532838
0.532841
0.532841
0.532839
0.532836
0.532832
0.532826
0.532819
0.532812
0.532804
0.532795
0.532787
0.532778
0.532769
0.53276
0.532752
0.532744
0.532736
0.532728
0.532721
0.532715
0.532708
0.532703
0.532698
0.532694
0.53269
0.532687
0.532684
0.532682
0.532681
0.53268
0.53268
0.532681
0.532682
0.532684
0.532687
0.53269
0.532694
0.532698
0.532703
0.532708
0.532715
0.532721
0.532728
0.532736
0.532744
0.532752
0.53276
0.532769
0.532778
0.532787
0.532795
0.532804
0.532812
0.532819
0.532826
0.532832
0.532836
0.532839
0.532841
0.532841
0.532838
0.532834
0.532827
0.532817
0.532804
0.532789
0.532771
0.53275
0.532725
0.532702
0.53266
0.532679
0.532699
0.532716
0.532731
0.532744
0.532755
0.532764
0.532771
0.532776
0.53278
0.532781
0.532781
0.53278
0.532777
0.532774
0.532769
0.532764
0.532758
0.532752
0.532746
0.532739
0.532732
0.532725
0.532719
0.532712
0.532706
0.5327
0.532694
0.532689
0.532684
0.532679
0.532675
0.532671
0.532668
0.532666
0.532663
0.532662
0.532661
0.53266
0.53266
0.532661
0.532662
0.532663
0.532666
0.532668
0.532671
0.532675
0.532679
0.532684
0.532689
0.532694
0.5327
0.532706
0.532712
0.532719
0.532725
0.532732
0.532739
0.532746
0.532752
0.532758
0.532764
0.532769
0.532774
0.532777
0.53278
0.532781
0.532781
0.53278
0.532776
0.532771
0.532764
0.532755
0.532744
0.532731
0.532716
0.532699
0.532679
0.53266
0.532623
0.532638
0.532654
0.532668
0.532681
0.532692
0.532702
0.53271
0.532716
0.532721
0.532725
0.532727
0.532728
0.532728
0.532727
0.532725
0.532722
0.532719
0.532715
0.53271
0.532706
0.532701
0.532696
0.53269
0.532685
0.53268
0.532675
0.53267
0.532666
0.532661
0.532657
0.532654
0.53265
0.532647
0.532645
0.532642
0.532641
0.532639
0.532638
0.532638
0.532638
0.532638
0.532639
0.532641
0.532642
0.532645
0.532647
0.53265
0.532654
0.532657
0.532661
0.532666
0.53267
0.532675
0.53268
0.532685
0.53269
0.532696
0.532701
0.532706
0.53271
0.532715
0.532719
0.532722
0.532725
0.532727
0.532728
0.532728
0.532727
0.532725
0.532721
0.532716
0.53271
0.532702
0.532692
0.532681
0.532668
0.532654
0.532638
0.532623
0.532589
0.532601
0.532614
0.532626
0.532637
0.532646
0.532654
0.532662
0.532667
0.532672
0.532676
0.532679
0.53268
0.532681
0.532681
0.53268
0.532678
0.532676
0.532673
0.53267
0.532667
0.532663
0.532659
0.532655
0.532651
0.532648
0.532644
0.53264
0.532636
0.532633
0.53263
0.532627
0.532624
0.532621
0.532619
0.532618
0.532616
0.532615
0.532614
0.532614
0.532614
0.532614
0.532615
0.532616
0.532618
0.532619
0.532621
0.532624
0.532627
0.53263
0.532633
0.532636
0.53264
0.532644
0.532648
0.532651
0.532655
0.532659
0.532663
0.532667
0.53267
0.532673
0.532676
0.532678
0.53268
0.532681
0.532681
0.53268
0.532679
0.532676
0.532672
0.532667
0.532662
0.532654
0.532646
0.532637
0.532626
0.532614
0.532601
0.532589
0.532557
0.532567
0.532578
0.532588
0.532596
0.532604
0.532612
0.532618
0.532623
0.532628
0.532631
0.532634
0.532636
0.532637
0.532637
0.532637
0.532636
0.532635
0.532633
0.532631
0.532629
0.532626
0.532624
0.532621
0.532618
0.532615
0.532612
0.532609
0.532606
0.532603
0.532601
0.532599
0.532596
0.532595
0.532593
0.532591
0.53259
0.532589
0.532589
0.532589
0.532589
0.532589
0.532589
0.53259
0.532591
0.532593
0.532595
0.532596
0.532599
0.532601
0.532603
0.532606
0.532609
0.532612
0.532615
0.532618
0.532621
0.532624
0.532626
0.532629
0.532631
0.532633
0.532635
0.532636
0.532637
0.532637
0.532637
0.532636
0.532634
0.532631
0.532628
0.532623
0.532618
0.532612
0.532604
0.532596
0.532588
0.532578
0.532567
0.532557
0.532527
0.532535
0.532544
0.532552
0.532559
0.532566
0.532572
0.532578
0.532582
0.532586
0.53259
0.532592
0.532594
0.532596
0.532597
0.532597
0.532597
0.532596
0.532595
0.532594
0.532592
0.532591
0.532589
0.532587
0.532584
0.532582
0.53258
0.532578
0.532576
0.532574
0.532572
0.53257
0.532568
0.532567
0.532565
0.532564
0.532563
0.532563
0.532562
0.532562
0.532562
0.532562
0.532563
0.532563
0.532564
0.532565
0.532567
0.532568
0.53257
0.532572
0.532574
0.532576
0.532578
0.53258
0.532582
0.532584
0.532587
0.532589
0.532591
0.532592
0.532594
0.532595
0.532596
0.532597
0.532597
0.532597
0.532596
0.532594
0.532592
0.53259
0.532586
0.532582
0.532578
0.532572
0.532566
0.532559
0.532552
0.532544
0.532535
0.532527
0.532498
0.532505
0.532512
0.532519
0.532525
0.53253
0.532536
0.53254
0.532544
0.532548
0.532551
0.532554
0.532556
0.532557
0.532558
0.532559
0.532559
0.532559
0.532558
0.532558
0.532557
0.532556
0.532554
0.532553
0.532551
0.53255
0.532548
0.532546
0.532545
0.532543
0.532542
0.53254
0.532539
0.532538
0.532537
0.532536
0.532535
0.532535
0.532534
0.532534
0.532534
0.532534
0.532535
0.532535
0.532536
0.532537
0.532538
0.532539
0.53254
0.532542
0.532543
0.532545
0.532546
0.532548
0.53255
0.532551
0.532553
0.532554
0.532556
0.532557
0.532558
0.532558
0.532559
0.532559
0.532559
0.532558
0.532557
0.532556
0.532554
0.532551
0.532548
0.532544
0.53254
0.532536
0.53253
0.532525
0.532519
0.532512
0.532505
0.532498
0.53247
0.532475
0.532481
0.532487
0.532492
0.532497
0.532501
0.532505
0.532509
0.532512
0.532514
0.532517
0.532519
0.53252
0.532521
0.532522
0.532523
0.532523
0.532523
0.532523
0.532522
0.532521
0.532521
0.53252
0.532519
0.532517
0.532516
0.532515
0.532514
0.532513
0.532512
0.532511
0.53251
0.532509
0.532508
0.532507
0.532507
0.532506
0.532506
0.532506
0.532506
0.532506
0.532506
0.532507
0.532507
0.532508
0.532509
0.53251
0.532511
0.532512
0.532513
0.532514
0.532515
0.532516
0.532517
0.532519
0.53252
0.532521
0.532521
0.532522
0.532523
0.532523
0.532523
0.532523
0.532522
0.532521
0.53252
0.532519
0.532517
0.532514
0.532512
0.532509
0.532505
0.532501
0.532497
0.532492
0.532487
0.532481
0.532475
0.53247
0.532442
0.532447
0.532452
0.532456
0.53246
0.532464
0.532468
0.532471
0.532474
0.532477
0.53248
0.532482
0.532484
0.532485
0.532486
0.532487
0.532488
0.532488
0.532488
0.532488
0.532488
0.532488
0.532487
0.532487
0.532486
0.532485
0.532485
0.532484
0.532483
0.532482
0.532481
0.532481
0.53248
0.532479
0.532479
0.532478
0.532478
0.532477
0.532477
0.532477
0.532477
0.532477
0.532477
0.532478
0.532478
0.532479
0.532479
0.53248
0.532481
0.532481
0.532482
0.532483
0.532484
0.532485
0.532485
0.532486
0.532487
0.532487
0.532488
0.532488
0.532488
0.532488
0.532488
0.532488
0.532487
0.532486
0.532485
0.532484
0.532482
0.53248
0.532477
0.532474
0.532471
0.532468
0.532464
0.53246
0.532456
0.532452
0.532447
0.532442
0.532415
0.532418
0.532422
0.532426
0.53243
0.532433
0.532436
0.532439
0.532442
0.532444
0.532446
0.532448
0.53245
0.532451
0.532452
0.532453
0.532454
0.532455
0.532455
0.532455
0.532455
0.532455
0.532455
0.532454
0.532454
0.532454
0.532453
0.532453
0.532452
0.532451
0.532451
0.53245
0.53245
0.532449
0.532449
0.532449
0.532448
0.532448
0.532448
0.532448
0.532448
0.532448
0.532448
0.532448
0.532449
0.532449
0.532449
0.53245
0.53245
0.532451
0.532451
0.532452
0.532453
0.532453
0.532454
0.532454
0.532454
0.532455
0.532455
0.532455
0.532455
0.532455
0.532455
0.532454
0.532453
0.532452
0.532451
0.53245
0.532448
0.532446
0.532444
0.532442
0.532439
0.532436
0.532433
0.53243
0.532426
0.532422
0.532418
0.532415
0.532388
0.532391
0.532394
0.532397
0.5324
0.532402
0.532405
0.532407
0.53241
0.532412
0.532414
0.532415
0.532417
0.532418
0.532419
0.53242
0.532421
0.532422
0.532422
0.532422
0.532423
0.532423
0.532423
0.532422
0.532422
0.532422
0.532422
0.532421
0.532421
0.532421
0.53242
0.53242
0.53242
0.532419
0.532419
0.532419
0.532419
0.532418
0.532418
0.532418
0.532418
0.532418
0.532418
0.532419
0.532419
0.532419
0.532419
0.53242
0.53242
0.53242
0.532421
0.532421
0.532421
0.532422
0.532422
0.532422
0.532422
0.532423
0.532423
0.532423
0.532422
0.532422
0.532422
0.532421
0.53242
0.532419
0.532418
0.532417
0.532415
0.532414
0.532412
0.53241
0.532407
0.532405
0.532402
0.5324
0.532397
0.532394
0.532391
0.532388
0.53236
0.532363
0.532365
0.532368
0.53237
0.532372
0.532375
0.532377
0.532379
0.53238
0.532382
0.532384
0.532385
0.532386
0.532387
0.532388
0.532389
0.532389
0.53239
0.53239
0.532391
0.532391
0.532391
0.532391
0.532391
0.532391
0.532391
0.53239
0.53239
0.53239
0.53239
0.53239
0.532389
0.532389
0.532389
0.532389
0.532389
0.532389
0.532389
0.532388
0.532388
0.532389
0.532389
0.532389
0.532389
0.532389
0.532389
0.532389
0.53239
0.53239
0.53239
0.53239
0.53239
0.532391
0.532391
0.532391
0.532391
0.532391
0.532391
0.532391
0.53239
0.53239
0.532389
0.532389
0.532388
0.532387
0.532386
0.532385
0.532384
0.532382
0.53238
0.532379
0.532377
0.532375
0.532372
0.53237
0.532368
0.532365
0.532363
0.53236
0.532333
0.532335
0.532337
0.532339
0.532341
0.532343
0.532345
0.532346
0.532348
0.53235
0.532351
0.532352
0.532353
0.532355
0.532356
0.532356
0.532357
0.532358
0.532358
0.532359
0.532359
0.532359
0.532359
0.53236
0.53236
0.53236
0.53236
0.53236
0.53236
0.532359
0.532359
0.532359
0.532359
0.532359
0.532359
0.532359
0.532359
0.532359
0.532359
0.532359
0.532359
0.532359
0.532359
0.532359
0.532359
0.532359
0.532359
0.532359
0.532359
0.532359
0.532359
0.53236
0.53236
0.53236
0.53236
0.53236
0.53236
0.532359
0.532359
0.532359
0.532359
0.532358
0.532358
0.532357
0.532356
0.532356
0.532355
0.532353
0.532352
0.532351
0.53235
0.532348
0.532346
0.532345
0.532343
0.532341
0.532339
0.532337
0.532335
0.532333
0.532306
0.532307
0.532309
0.532311
0.532312
0.532314
0.532315
0.532317
0.532318
0.532319
0.53232
0.532322
0.532323
0.532324
0.532324
0.532325
0.532326
0.532327
0.532327
0.532327
0.532328
0.532328
0.532328
0.532329
0.532329
0.532329
0.532329
0.532329
0.532329
0.532329
0.532329
0.532329
0.532329
0.532329
0.532329
0.532329
0.532329
0.532329
0.532329
0.532329
0.532329
0.532329
0.532329
0.532329
0.532329
0.532329
0.532329
0.532329
0.532329
0.532329
0.532329
0.532329
0.532329
0.532329
0.532329
0.532329
0.532329
0.532328
0.532328
0.532328
0.532327
0.532327
0.532327
0.532326
0.532325
0.532324
0.532324
0.532323
0.532322
0.53232
0.532319
0.532318
0.532317
0.532315
0.532314
0.532312
0.532311
0.532309
0.532307
0.532306
0.532278
0.532279
0.532281
0.532282
0.532283
0.532285
0.532286
0.532287
0.532288
0.532289
0.53229
0.532291
0.532292
0.532293
0.532294
0.532294
0.532295
0.532296
0.532296
0.532297
0.532297
0.532297
0.532298
0.532298
0.532298
0.532298
0.532298
0.532298
0.532298
0.532299
0.532299
0.532299
0.532299
0.532299
0.532299
0.532299
0.532299
0.532299
0.532299
0.532298
0.532298
0.532299
0.532299
0.532299
0.532299
0.532299
0.532299
0.532299
0.532299
0.532299
0.532299
0.532298
0.532298
0.532298
0.532298
0.532298
0.532298
0.532298
0.532297
0.532297
0.532297
0.532296
0.532296
0.532295
0.532294
0.532294
0.532293
0.532292
0.532291
0.53229
0.532289
0.532288
0.532287
0.532286
0.532285
0.532283
0.532282
0.532281
0.532279
0.532278
0.532251
0.532251
0.532252
0.532254
0.532255
0.532256
0.532257
0.532258
0.532259
0.532259
0.53226
0.532261
0.532262
0.532263
0.532263
0.532264
0.532265
0.532265
0.532266
0.532266
0.532266
0.532267
0.532267
0.532267
0.532268
0.532268
0.532268
0.532268
0.532268
0.532268
0.532268
0.532268
0.532268
0.532268
0.532268
0.532268
0.532268
0.532268
0.532268
0.532268
0.532268
0.532268
0.532268
0.532268
0.532268
0.532268
0.532268
0.532268
0.532268
0.532268
0.532268
0.532268
0.532268
0.532268
0.532268
0.532268
0.532267
0.532267
0.532267
0.532266
0.532266
0.532266
0.532265
0.532265
0.532264
0.532263
0.532263
0.532262
0.532261
0.53226
0.532259
0.532259
0.532258
0.532257
0.532256
0.532255
0.532254
0.532252
0.532251
0.532251
0.532223
0.532223
0.532224
0.532225
0.532226
0.532227
0.532228
0.532228
0.532229
0.53223
0.532231
0.532231
0.532232
0.532233
0.532233
0.532234
0.532234
0.532235
0.532235
0.532236
0.532236
0.532236
0.532237
0.532237
0.532237
0.532237
0.532238
0.532238
0.532238
0.532238
0.532238
0.532238
0.532238
0.532238
0.532238
0.532238
0.532238
0.532238
0.532238
0.532238
0.532238
0.532238
0.532238
0.532238
0.532238
0.532238
0.532238
0.532238
0.532238
0.532238
0.532238
0.532238
0.532238
0.532238
0.532237
0.532237
0.532237
0.532237
0.532236
0.532236
0.532236
0.532235
0.532235
0.532234
0.532234
0.532233
0.532233
0.532232
0.532231
0.532231
0.53223
0.532229
0.532228
0.532228
0.532227
0.532226
0.532225
0.532224
0.532223
0.532223
0.532195
0.532195
0.532196
0.532196
0.532197
0.532198
0.532199
0.532199
0.5322
0.5322
0.532201
0.532202
0.532202
0.532203
0.532203
0.532204
0.532204
0.532205
0.532205
0.532206
0.532206
0.532206
0.532207
0.532207
0.532207
0.532207
0.532207
0.532208
0.532208
0.532208
0.532208
0.532208
0.532208
0.532208
0.532208
0.532208
0.532208
0.532208
0.532208
0.532208
0.532208
0.532208
0.532208
0.532208
0.532208
0.532208
0.532208
0.532208
0.532208
0.532208
0.532208
0.532208
0.532208
0.532207
0.532207
0.532207
0.532207
0.532207
0.532206
0.532206
0.532206
0.532205
0.532205
0.532204
0.532204
0.532203
0.532203
0.532202
0.532202
0.532201
0.5322
0.5322
0.532199
0.532199
0.532198
0.532197
0.532196
0.532196
0.532195
0.532195
0.532166
0.532167
0.532167
0.532168
0.532168
0.532169
0.532169
0.53217
0.532171
0.532171
0.532172
0.532172
0.532173
0.532173
0.532174
0.532174
0.532174
0.532175
0.532175
0.532176
0.532176
0.532176
0.532176
0.532177
0.532177
0.532177
0.532177
0.532177
0.532178
0.532178
0.532178
0.532178
0.532178
0.532178
0.532178
0.532178
0.532178
0.532178
0.532178
0.532178
0.532178
0.532178
0.532178
0.532178
0.532178
0.532178
0.532178
0.532178
0.532178
0.532178
0.532178
0.532178
0.532177
0.532177
0.532177
0.532177
0.532177
0.532176
0.532176
0.532176
0.532176
0.532175
0.532175
0.532174
0.532174
0.532174
0.532173
0.532173
0.532172
0.532172
0.532171
0.532171
0.53217
0.532169
0.532169
0.532168
0.532168
0.532167
0.532167
0.532166
0.532138
0.532138
0.532139
0.532139
0.53214
0.53214
0.53214
0.532141
0.532141
0.532142
0.532142
0.532143
0.532143
0.532144
0.532144
0.532144
0.532145
0.532145
0.532145
0.532146
0.532146
0.532146
0.532146
0.532147
0.532147
0.532147
0.532147
0.532147
0.532148
0.532148
0.532148
0.532148
0.532148
0.532148
0.532148
0.532148
0.532148
0.532148
0.532148
0.532148
0.532148
0.532148
0.532148
0.532148
0.532148
0.532148
0.532148
0.532148
0.532148
0.532148
0.532148
0.532148
0.532147
0.532147
0.532147
0.532147
0.532147
0.532146
0.532146
0.532146
0.532146
0.532145
0.532145
0.532145
0.532144
0.532144
0.532144
0.532143
0.532143
0.532142
0.532142
0.532141
0.532141
0.53214
0.53214
0.53214
0.532139
0.532139
0.532138
0.532138
0.53211
0.53211
0.53211
0.53211
0.532111
0.532111
0.532111
0.532112
0.532112
0.532113
0.532113
0.532113
0.532114
0.532114
0.532114
0.532115
0.532115
0.532115
0.532116
0.532116
0.532116
0.532116
0.532117
0.532117
0.532117
0.532117
0.532117
0.532117
0.532118
0.532118
0.532118
0.532118
0.532118
0.532118
0.532118
0.532118
0.532118
0.532118
0.532118
0.532118
0.532118
0.532118
0.532118
0.532118
0.532118
0.532118
0.532118
0.532118
0.532118
0.532118
0.532118
0.532118
0.532117
0.532117
0.532117
0.532117
0.532117
0.532117
0.532116
0.532116
0.532116
0.532116
0.532115
0.532115
0.532115
0.532114
0.532114
0.532114
0.532113
0.532113
0.532113
0.532112
0.532112
0.532111
0.532111
0.532111
0.53211
0.53211
0.53211
0.53211
0.532081
0.532081
0.532081
0.532082
0.532082
0.532082
0.532082
0.532083
0.532083
0.532083
0.532084
0.532084
0.532084
0.532085
0.532085
0.532085
0.532085
0.532086
0.532086
0.532086
0.532086
0.532087
0.532087
0.532087
0.532087
0.532087
0.532087
0.532088
0.532088
0.532088
0.532088
0.532088
0.532088
0.532088
0.532088
0.532088
0.532088
0.532088
0.532088
0.532088
0.532088
0.532088
0.532088
0.532088
0.532088
0.532088
0.532088
0.532088
0.532088
0.532088
0.532088
0.532088
0.532088
0.532087
0.532087
0.532087
0.532087
0.532087
0.532087
0.532086
0.532086
0.532086
0.532086
0.532085
0.532085
0.532085
0.532085
0.532084
0.532084
0.532084
0.532083
0.532083
0.532083
0.532082
0.532082
0.532082
0.532082
0.532081
0.532081
0.532081
0.532052
0.532052
0.532053
0.532053
0.532053
0.532053
0.532053
0.532054
0.532054
0.532054
0.532054
0.532055
0.532055
0.532055
0.532055
0.532056
0.532056
0.532056
0.532056
0.532056
0.532057
0.532057
0.532057
0.532057
0.532057
0.532058
0.532058
0.532058
0.532058
0.532058
0.532058
0.532058
0.532058
0.532058
0.532058
0.532058
0.532059
0.532059
0.532059
0.532059
0.532059
0.532059
0.532059
0.532059
0.532058
0.532058
0.532058
0.532058
0.532058
0.532058
0.532058
0.532058
0.532058
0.532058
0.532058
0.532057
0.532057
0.532057
0.532057
0.532057
0.532056
0.532056
0.532056
0.532056
0.532056
0.532055
0.532055
0.532055
0.532055
0.532054
0.532054
0.532054
0.532054
0.532053
0.532053
0.532053
0.532053
0.532053
0.532052
0.532052
0.532023
0.532023
0.532024
0.532024
0.532024
0.532024
0.532024
0.532024
0.532025
0.532025
0.532025
0.532025
0.532025
0.532026
0.532026
0.532026
0.532026
0.532026
0.532027
0.532027
0.532027
0.532027
0.532027
0.532028
0.532028
0.532028
0.532028
0.532028
0.532028
0.532028
0.532028
0.532028
0.532029
0.532029
0.532029
0.532029
0.532029
0.532029
0.532029
0.532029
0.532029
0.532029
0.532029
0.532029
0.532029
0.532029
0.532029
0.532029
0.532028
0.532028
0.532028
0.532028
0.532028
0.532028
0.532028
0.532028
0.532028
0.532027
0.532027
0.532027
0.532027
0.532027
0.532026
0.532026
0.532026
0.532026
0.532026
0.532025
0.532025
0.532025
0.532025
0.532025
0.532024
0.532024
0.532024
0.532024
0.532024
0.532024
0.532023
0.532023
0.531994
0.531995
0.531995
0.531995
0.531995
0.531995
0.531995
0.531995
0.531995
0.531996
0.531996
0.531996
0.531996
0.531996
0.531996
0.531997
0.531997
0.531997
0.531997
0.531997
0.531997
0.531998
0.531998
0.531998
0.531998
0.531998
0.531998
0.531998
0.531998
0.531999
0.531999
0.531999
0.531999
0.531999
0.531999
0.531999
0.531999
0.531999
0.531999
0.531999
0.531999
0.531999
0.531999
0.531999
0.531999
0.531999
0.531999
0.531999
0.531999
0.531999
0.531999
0.531998
0.531998
0.531998
0.531998
0.531998
0.531998
0.531998
0.531998
0.531997
0.531997
0.531997
0.531997
0.531997
0.531997
0.531996
0.531996
0.531996
0.531996
0.531996
0.531996
0.531995
0.531995
0.531995
0.531995
0.531995
0.531995
0.531995
0.531995
0.531994
0.531965
0.531965
0.531966
0.531966
0.531966
0.531966
0.531966
0.531966
0.531966
0.531966
0.531966
0.531967
0.531967
0.531967
0.531967
0.531967
0.531967
0.531967
0.531968
0.531968
0.531968
0.531968
0.531968
0.531968
0.531968
0.531968
0.531969
0.531969
0.531969
0.531969
0.531969
0.531969
0.531969
0.531969
0.531969
0.531969
0.531969
0.531969
0.531969
0.531969
0.531969
0.531969
0.531969
0.531969
0.531969
0.531969
0.531969
0.531969
0.531969
0.531969
0.531969
0.531969
0.531969
0.531969
0.531968
0.531968
0.531968
0.531968
0.531968
0.531968
0.531968
0.531968
0.531967
0.531967
0.531967
0.531967
0.531967
0.531967
0.531967
0.531966
0.531966
0.531966
0.531966
0.531966
0.531966
0.531966
0.531966
0.531966
0.531965
0.531965
0.531936
0.531936
0.531936
0.531936
0.531937
0.531937
0.531937
0.531937
0.531937
0.531937
0.531937
0.531937
0.531937
0.531937
0.531938
0.531938
0.531938
0.531938
0.531938
0.531938
0.531938
0.531938
0.531938
0.531939
0.531939
0.531939
0.531939
0.531939
0.531939
0.531939
0.531939
0.531939
0.531939
0.531939
0.531939
0.531939
0.531939
0.531939
0.531939
0.531939
0.531939
0.531939
0.531939
0.531939
0.531939
0.531939
0.531939
0.531939
0.531939
0.531939
0.531939
0.531939
0.531939
0.531939
0.531939
0.531939
0.531939
0.531938
0.531938
0.531938
0.531938
0.531938
0.531938
0.531938
0.531938
0.531938
0.531937
0.531937
0.531937
0.531937
0.531937
0.531937
0.531937
0.531937
0.531937
0.531937
0.531936
0.531936
0.531936
0.531936
0.531907
0.531907
0.531907
0.531907
0.531907
0.531907
0.531907
0.531907
0.531908
0.531908
0.531908
0.531908
0.531908
0.531908
0.531908
0.531908
0.531908
0.531908
0.531909
0.531909
0.531909
0.531909
0.531909
0.531909
0.531909
0.531909
0.531909
0.531909
0.531909
0.531909
0.53191
0.53191
0.53191
0.53191
0.53191
0.53191
0.53191
0.53191
0.53191
0.53191
0.53191
0.53191
0.53191
0.53191
0.53191
0.53191
0.53191
0.53191
0.53191
0.53191
0.531909
0.531909
0.531909
0.531909
0.531909
0.531909
0.531909
0.531909
0.531909
0.531909
0.531909
0.531909
0.531908
0.531908
0.531908
0.531908
0.531908
0.531908
0.531908
0.531908
0.531908
0.531908
0.531907
0.531907
0.531907
0.531907
0.531907
0.531907
0.531907
0.531907
0.531878
0.531878
0.531878
0.531878
0.531878
0.531878
0.531878
0.531878
0.531878
0.531878
0.531878
0.531878
0.531878
0.531879
0.531879
0.531879
0.531879
0.531879
0.531879
0.531879
0.531879
0.531879
0.531879
0.531879
0.53188
0.53188
0.53188
0.53188
0.53188
0.53188
0.53188
0.53188
0.53188
0.53188
0.53188
0.53188
0.53188
0.53188
0.53188
0.53188
0.53188
0.53188
0.53188
0.53188
0.53188
0.53188
0.53188
0.53188
0.53188
0.53188
0.53188
0.53188
0.53188
0.53188
0.53188
0.53188
0.531879
0.531879
0.531879
0.531879
0.531879
0.531879
0.531879
0.531879
0.531879
0.531879
0.531879
0.531878
0.531878
0.531878
0.531878
0.531878
0.531878
0.531878
0.531878
0.531878
0.531878
0.531878
0.531878
0.531878
0.531849
0.531849
0.531849
0.531849
0.531849
0.531849
0.531849
0.531849
0.531849
0.531849
0.531849
0.531849
0.531849
0.531849
0.531849
0.531849
0.531849
0.531849
0.53185
0.53185
0.53185
0.53185
0.53185
0.53185
0.53185
0.53185
0.53185
0.53185
0.53185
0.53185
0.53185
0.53185
0.53185
0.53185
0.53185
0.53185
0.53185
0.53185
0.53185
0.53185
0.53185
0.53185
0.53185
0.53185
0.53185
0.53185
0.53185
0.53185
0.53185
0.53185
0.53185
0.53185
0.53185
0.53185
0.53185
0.53185
0.53185
0.53185
0.53185
0.53185
0.53185
0.53185
0.531849
0.531849
0.531849
0.531849
0.531849
0.531849
0.531849
0.531849
0.531849
0.531849
0.531849
0.531849
0.531849
0.531849
0.531849
0.531849
0.531849
0.531849
0.531819
0.531819
0.531819
0.531819
0.531819
0.531819
0.531819
0.531819
0.531819
0.53182
0.53182
0.53182
0.53182
0.53182
0.53182
0.53182
0.53182
0.53182