/*--------------------------------*- C++ -*----------------------------------*\
  =========                 |
  \\      /  F ield         | OpenFOAM: The Open Source CFD Toolbox
   \\    /   O peration     | Website:  https://openfoam.org
    \\  /    A nd           | Version:  11
     \\/     M anipulation  |
\*---------------------------------------------------------------------------*/
FoamFile
{
    format      ascii;
    class       volScalarField;
    location    "100";
    object      C;
}
// * * * * * * * * * * * * * * * * * * * * * * * * * * * * * * * * * * * * * //

dimensions      [0 0 0 1 0 0 0];

internalField   nonuniform List<scalar> 
440320
(
1.07484e-311
3.14848e-311
1.29249e-311
4.30804e-312
-9.46362e-313
5.18684e-312
4.42284e-312
3.1364e-312
5.79812e-312
2.30619e-312
-1.11789e-311
-2.49851e-311
-1.14473e-311
-1.37792e-311
-2.88318e-311
-1.28358e-311
-3.6039e-312
-6.23732e-312
-6.89815e-312
1.05333e-311
-5.46546e-312
2.04197e-311
1.11688e-311
4.80816e-312
1.11778e-311
2.65082e-311
6.44943e-312
1.90181e-311
3.51955e-311
1.03306e-311
-1.14396e-311
-3.46549e-311
-1.03529e-311
1.37517e-311
8.42575e-313
-2.28076e-311
4.86205e-312
-1.85879e-313
3.26108e-311
1.10724e-311
-1.00657e-311
2.0107e-314
-5.18751e-312
2.68129e-312
2.44422e-311
3.48969e-311
3.40066e-311
-1.40407e-311
-5.6816e-311
-3.11243e-311
-3.56539e-311
-2.81585e-311
-1.67727e-311
1.04606e-311
2.55051e-311
8.3685e-312
6.99728e-312
1.07357e-311
2.17059e-311
2.23003e-311
1.32321e-311
2.54769e-311
2.73161e-311
-4.66157e-312
2.87866e-311
3.63799e-312
-1.74396e-311
2.76965e-312
1.31775e-311
7.94257e-312
-1.19735e-311
1.65609e-311
2.57004e-311
1.741e-311
2.65428e-311
2.60829e-311
2.0357e-311
2.76826e-311
4.38816e-313
1.95422e-312
4.14014e-311
2.3421e-311
2.32595e-311
3.04149e-312
4.84545e-312
2.06503e-311
2.03992e-312
-3.82683e-311
-4.23898e-311
-3.19851e-311
-3.72366e-311
-4.10294e-311
-4.08859e-311
-1.76048e-311
-4.06387e-311
-1.15921e-311
-8.42219e-313
-1.18028e-311
-2.29105e-311
-2.3163e-311
1.34339e-311
2.62468e-311
4.06271e-311
5.25744e-311
1.7724e-311
2.66175e-311
-1.49355e-311
-6.14489e-312
1.57838e-311
1.19063e-311
-2.13863e-311
-2.57328e-311
5.15684e-311
6.23545e-311
5.5807e-311
-2.0176e-312
-2.02999e-312
-5.35156e-312
2.58667e-311
6.26333e-312
1.69228e-311
4.65902e-311
5.64775e-311
3.34641e-311
4.75135e-311
4.56274e-311
5.52958e-311
-3.27578e-311
-2.22315e-311
-3.95803e-312
-4.31013e-311
-3.02279e-311
2.30201e-311
2.14733e-311
3.99658e-311
2.24971e-312
3.36119e-311
2.1175e-311
1.28847e-311
2.51267e-311
3.83769e-312
1.24372e-311
8.50084e-312
1.04637e-312
-1.36823e-311
-1.90181e-311
-2.80887e-311
-3.8549e-312
1.46377e-311
2.41036e-311
1.02148e-311
4.70154e-311
4.95204e-311
-8.06645e-312
-8.70336e-312
7.06705e-312
1.49476e-311
2.06979e-311
2.6675e-311
6.54133e-311
2.38084e-311
8.00488e-312
1.50892e-311
-2.23819e-312
-4.01969e-312
1.37442e-311
1.31078e-312
-2.68274e-311
-3.9911e-311
-8.8477e-311
-9.03805e-311
-6.46452e-311
-6.75258e-311
-1.7816e-311
1.34447e-311
1.86354e-311
-7.9263e-312
-1.45371e-312
-2.59176e-311
-1.26093e-311
-2.54931e-311
1.40536e-311
5.18525e-311
5.09378e-311
4.5239e-311
5.00633e-311
3.16461e-311
-2.46793e-313
-1.84159e-311
-4.09741e-311
-2.94076e-311
9.71026e-312
6.95341e-311
7.28316e-311
2.91382e-311
1.4772e-311
-4.0946e-312
-1.72196e-311
1.97085e-311
6.4743e-312
4.3172e-311
3.83454e-311
6.09672e-312
5.83706e-313
3.04306e-311
2.23039e-311
2.32808e-311
-2.02046e-311
-3.33057e-311
1.34854e-312
4.87436e-312
-2.30582e-311
2.1596e-312
-9.93153e-312
-3.39816e-312
1.15677e-311
2.93904e-311
6.13568e-311
5.2494e-311
5.76441e-311
-4.98239e-311
-8.269e-312
3.73571e-311
4.76194e-311
5.78724e-311
3.36691e-311
-1.52086e-311
1.19254e-311
3.34014e-311
2.05101e-311
-7.22443e-312
-3.44819e-311
-3.63214e-311
-4.03671e-311
-2.00501e-311
-1.51545e-311
4.06126e-311
3.77812e-311
5.26578e-311
1.39731e-310
5.94527e-311
3.00513e-311
2.19233e-311
-1.60614e-312
5.93616e-311
6.77813e-311
4.37339e-311
8.88683e-313
-4.29502e-311
-4.74245e-311
-5.25107e-311
-2.25647e-311
-7.84365e-312
-4.35323e-312
2.60714e-311
5.22922e-311
5.19686e-311
3.19094e-311
-2.10132e-311
-1.39398e-311
1.23916e-312
8.63368e-312
3.55274e-311
4.00628e-311
5.14194e-311
4.76608e-311
3.56753e-311
1.61958e-312
-4.32816e-311
-5.36336e-311
-4.83193e-311
-1.56874e-311
3.08164e-311
5.91536e-311
9.08581e-311
5.58525e-311
7.88458e-312
-3.15117e-311
-1.47407e-311
2.18848e-312
-1.4067e-311
-3.16634e-312
1.091e-311
2.3673e-311
1.99947e-311
4.89068e-311
2.88815e-311
-1.16964e-311
-2.05069e-311
-3.96439e-311
-5.80834e-311
-3.05213e-311
-4.58861e-311
-4.54314e-311
-2.58177e-311
-2.00132e-312
7.09405e-312
3.05051e-311
7.49729e-312
-1.42292e-311
-2.87071e-311
1.35105e-311
5.88705e-311
2.27967e-311
5.80666e-311
3.97061e-311
-4.02556e-311
-6.79691e-311
-8.26056e-311
-9.49914e-311
-6.83574e-311
-6.16372e-311
-8.34788e-311
-7.15076e-311
-3.04566e-311
-2.66032e-311
3.30365e-311
-7.49309e-312
-1.78702e-312
8.25679e-311
-1.47113e-310
-7.66628e-311
-1.19154e-310
-4.73117e-311
3.21478e-311
8.16029e-311
1.2413e-311
-6.22552e-312
8.59913e-312
5.11865e-312
-2.10624e-311
-1.90184e-311
1.55852e-311
-5.59273e-312
3.78441e-311
4.88468e-311
1.00649e-310
8.08985e-311
3.25067e-311
-4.91918e-312
1.97133e-311
7.02289e-312
1.60226e-311
1.00817e-312
2.886e-311
4.84275e-311
4.18854e-311
2.03953e-311
-1.94887e-311
-4.02233e-311
-1.18825e-311
-2.71122e-311
4.0476e-311
9.3461e-311
1.4304e-310
9.58214e-311
6.6691e-311
-3.30975e-311
-1.70678e-311
-3.05692e-311
-2.19681e-311
-3.93919e-311
-9.27661e-312
3.45687e-311
5.67495e-311
4.05243e-311
3.6767e-311
-1.81634e-311
-7.29107e-311
-9.65832e-311
-8.5105e-311
-9.76964e-311
-1.01096e-310
-1.13724e-310
-7.97371e-311
1.69701e-313
4.96596e-311
6.86774e-311
5.33239e-312
-4.85323e-312
-1.60431e-312
-1.01435e-311
-3.44781e-312
5.78389e-312
-2.65707e-311
-8.17981e-311
-1.20921e-310
-1.67483e-310
-2.00009e-310
-1.43575e-310
-9.28399e-311
-1.04875e-310
-1.51268e-310
-1.29847e-310
-9.18628e-311
-5.8745e-311
-4.32606e-311
-3.58867e-311
-8.59937e-311
-9.71879e-311
-2.33519e-310
-2.33043e-310
-2.37072e-310
-1.18323e-310
-5.23714e-311
1.12298e-311
2.66937e-311
3.81585e-311
5.81951e-311
8.28291e-311
2.48617e-311
1.2942e-311
-1.24992e-311
-2.79209e-312
3.64065e-311
5.15782e-311
7.16551e-311
2.63492e-311
5.43917e-312
-3.83817e-311
2.75412e-311
5.80786e-311
3.72247e-311
1.9805e-311
3.24948e-312
3.22539e-311
5.39559e-311
4.64675e-311
-4.16442e-312
-8.20873e-311
-4.30484e-311
2.75316e-311
4.0299e-311
1.0173e-310
1.03605e-310
8.96811e-311
4.55256e-311
3.29693e-311
7.92993e-312
-1.26191e-311
6.5841e-312
2.68835e-311
-2.05808e-312
3.1434e-311
3.51401e-311
-3.3295e-312
2.34775e-311
-2.29285e-311
-6.396e-311
-8.86532e-311
-9.61702e-311
-1.36759e-310
-1.22411e-310
-1.45822e-310
-1.09174e-310
-5.50415e-311
4.60183e-312
7.95816e-312
-8.79229e-312
-1.48569e-311
-4.40549e-311
-1.1254e-310
-1.23343e-310
-8.98931e-311
-1.15273e-310
-1.93851e-310
-2.56778e-310
-2.67193e-310
-2.35489e-310
-1.60511e-310
-1.03866e-310
-1.43866e-310
-1.9229e-310
-2.06211e-310
-1.60723e-310
-1.29006e-310
-1.35309e-310
-1.02026e-310
-2.30412e-310
-2.40082e-310
-3.95454e-310
-4.32146e-310
-2.73403e-310
-1.79994e-310
-1.49102e-310
-9.87064e-311
-4.66358e-311
1.41486e-312
3.6482e-311
8.92581e-311
6.1007e-311
4.74485e-311
3.9715e-311
3.21344e-311
1.26263e-311
5.5698e-311
3.55461e-311
-5.80538e-312
-1.22113e-311
-2.89105e-311
3.56736e-311
6.42271e-311
6.79317e-311
4.96376e-311
1.65802e-311
1.612e-311
3.86417e-311
-1.15131e-312
-6.98128e-311
-1.19515e-310
-8.34746e-311
-6.20013e-312
4.87459e-311
1.18733e-310
1.34801e-310
8.94432e-311
4.08805e-311
7.7557e-311
8.46009e-311
3.46641e-311
4.35031e-311
5.12805e-311
4.44579e-311
5.15065e-312
-2.08748e-311
-2.22538e-311
-1.63807e-311
-4.05662e-311
-5.19702e-311
-6.99155e-311
-9.67514e-311
-1.44665e-310
-1.84223e-310
-1.79228e-310
-1.01838e-310
-6.68509e-311
-1.26862e-311
-5.3111e-311
-4.91572e-311
-6.61196e-311
-1.2166e-310
-2.20698e-310
-2.44133e-310
-1.85683e-310
-1.9365e-310
-2.50179e-310
-3.57311e-310
-3.54228e-310
-2.431e-310
-1.7774e-310
-1.50702e-310
-1.70292e-310
-1.91446e-310
-2.33031e-310
-2.16854e-310
-2.33941e-310
-2.16839e-310
-2.26562e-310
-2.88473e-310
-3.14607e-310
-4.96372e-310
-4.94763e-310
-4.10855e-310
-3.0262e-310
-2.36641e-310
-2.05353e-310
-1.60718e-310
-6.25129e-311
-1.2158e-311
2.40459e-311
3.24515e-311
5.71258e-311
9.51092e-311
7.88878e-311
4.79284e-311
8.58058e-311
4.85971e-311
1.82255e-311
-7.08515e-312
-3.66861e-311
-1.24862e-311
3.60195e-311
4.73516e-311
3.06748e-311
4.81486e-312
1.18434e-311
3.23446e-311
2.52075e-311
-2.82496e-311
-8.57737e-311
-1.12149e-310
-4.96774e-311
3.26072e-312
8.48048e-311
9.98373e-311
1.1049e-310
6.26689e-311
1.01487e-310
1.04744e-310
4.73156e-311
2.19191e-311
1.46464e-312
-4.75912e-312
-4.80537e-311
-3.45653e-311
-2.49238e-311
-2.39487e-312
-4.14401e-312
-2.23651e-311
-5.23642e-311
-6.94972e-311
-1.44103e-310
-2.29234e-310
-2.43947e-310
-1.62995e-310
-1.10598e-310
-4.83089e-311
-3.50355e-311
-6.68347e-311
-9.46702e-311
-1.81888e-310
-2.71568e-310
-3.12329e-310
-2.42526e-310
-1.67457e-310
-2.06378e-310
-3.43966e-310
-3.63279e-310
-2.60344e-310
-2.33695e-310
-2.24821e-310
-2.11679e-310
-2.15292e-310
-2.56882e-310
-3.01034e-310
-3.69198e-310
-4.20711e-310
-5.47922e-310
-6.07164e-310
-5.66446e-310
-4.07759e-310
-4.16147e-310
-4.21432e-310
-3.55772e-310
-2.26424e-310
-2.41948e-310
-2.07534e-310
-1.09867e-310
-8.94929e-311
-2.38655e-311
-5.33724e-312
4.25313e-311
9.2151e-311
8.32521e-311
7.71208e-311
8.87494e-311
6.3967e-311
3.5949e-311
3.20807e-311
2.3271e-312
-1.38842e-311
1.44571e-311
1.4719e-311
2.3446e-311
2.26576e-311
3.46705e-311
5.46858e-311
5.09548e-311
2.7329e-311
-3.7791e-311
-1.12103e-310
-9.79418e-311
-1.48099e-311
3.23186e-311
5.58012e-311
6.53946e-311
8.2113e-311
1.0752e-310
1.15574e-310
3.4501e-311
-7.50127e-312
-1.00202e-311
-3.27882e-311
-7.82982e-311
-5.4031e-311
-3.48078e-311
2.66423e-311
5.1683e-311
7.75708e-311
8.60048e-311
1.96724e-311
-9.07804e-311
-1.88174e-310
-2.26311e-310
-1.60169e-310
-1.14399e-310
-9.11773e-311
-3.9614e-311
-3.24146e-311
-8.5522e-311
-1.77282e-310
-2.78018e-310
-2.94319e-310
-1.66151e-310
-5.10874e-311
-1.13164e-310
-2.45086e-310
-2.62606e-310
-1.99185e-310
-1.53794e-310
-2.00737e-310
-2.18555e-310
-2.80579e-310
-3.25337e-310
-3.79114e-310
-4.42301e-310
-6.08764e-310
-7.70901e-310
-8.75054e-310
-8.71134e-310
-3.10891e-310
-3.29431e-310
-4.1644e-310
-3.76757e-310
-3.05802e-310
-2.02198e-310
-1.70955e-310
-1.85585e-310
-1.40752e-310
-8.48725e-311
3.50181e-311
7.99084e-311
8.00797e-311
8.70817e-311
5.73423e-311
6.69289e-311
5.65458e-311
6.32743e-311
1.84089e-311
-5.57048e-311
-6.25622e-311
-4.30275e-311
-4.52277e-311
-4.44929e-311
2.63283e-311
5.22342e-311
4.49778e-311
5.9323e-311
3.30982e-311
-2.27294e-311
-9.39003e-311
-8.13974e-311
1.33151e-312
5.06329e-311
2.67548e-311
5.95733e-311
1.05843e-310
1.41962e-310
1.3541e-310
5.10836e-311
2.29278e-311
1.11196e-311
-2.52765e-312
-7.27523e-311
-2.08282e-311
-4.46939e-312
6.54441e-311
1.55659e-310
1.89276e-310
1.71972e-310
8.51528e-311
-3.29626e-311
-1.01934e-310
-1.2527e-310
-7.54275e-311
-9.30743e-311
-1.41413e-310
-1.39022e-310
-8.26055e-311
-3.53741e-311
-1.26874e-310
-1.89452e-310
-1.57727e-310
-3.6847e-311
5.67859e-311
5.72966e-312
-1.02173e-310
-1.26543e-310
-9.72885e-311
-8.63782e-311
-1.72922e-310
-1.89276e-310
-2.82192e-310
-3.76152e-310
-4.98546e-310
-6.46351e-310
-8.60922e-310
-1.07236e-309
-1.16133e-309
-1.12315e-309
-2.39789e-310
-2.32224e-310
-3.57405e-310
-3.26844e-310
-3.12644e-310
-2.0067e-310
-2.02919e-310
-2.19594e-310
-1.90607e-310
-1.14362e-310
-1.19073e-311
1.34208e-311
-2.34517e-312
4.89946e-311
7.33909e-311
4.86619e-311
3.45734e-311
3.12669e-311
-6.21159e-312
-8.46023e-311
-1.04249e-310
-9.02867e-311
-7.6595e-311
-5.83885e-311
-1.49743e-311
2.93633e-311
1.7684e-311
2.23878e-311
-5.87893e-312
-6.14584e-311
-1.03937e-310
-5.6127e-311
1.39736e-311
3.24893e-311
3.37473e-311
1.09773e-310
7.84087e-311
1.37541e-310
1.06894e-310
6.22361e-311
1.01568e-310
8.10423e-311
1.12824e-311
-6.75911e-311
-4.55063e-312
3.75552e-311
1.27216e-310
2.28469e-310
2.62145e-310
2.16997e-310
1.79528e-310
7.59444e-311
1.28676e-312
9.0389e-312
-6.48284e-312
-5.37727e-311
-9.96079e-311
-1.40128e-310
-6.25048e-311
-3.08016e-311
-8.13022e-311
-1.36227e-310
-1.26175e-310
4.24019e-312
1.06278e-310
9.7916e-311
1.83499e-311
1.222e-311
6.11728e-312
-6.26772e-311
-1.60785e-310
-2.19878e-310
-3.26781e-310
-4.29949e-310
-5.46075e-310
-6.89101e-310
-8.3393e-310
-1.00252e-309
-1.03172e-309
-9.20368e-310
-2.72808e-310
-2.59808e-310
-2.69394e-310
-2.07616e-310
-2.18804e-310
-1.62312e-310
-2.14867e-310
-2.43974e-310
-2.5422e-310
-1.59601e-310
-1.05634e-310
-5.77646e-311
-7.22362e-311
-6.46642e-311
5.76749e-311
9.01884e-311
6.49767e-311
-4.12917e-313
-2.90911e-312
-8.90754e-311
-1.01042e-310
-1.1319e-310
-9.79215e-311
-4.84394e-311
-8.44094e-312
3.51919e-311
5.43086e-311
5.72494e-311
6.58226e-312
-4.72768e-311
-6.17893e-311
-7.22066e-311
-2.87053e-311
-9.58414e-312
1.1633e-311
8.1754e-311
8.75969e-311
1.25389e-310
8.57204e-311
1.02729e-310
7.88812e-311
1.12797e-310
1.1616e-311
-7.29373e-311
-1.57856e-311
-7.25534e-312
1.23807e-310
2.25706e-310
2.82583e-310
2.68062e-310
2.35782e-310
1.47667e-310
1.15238e-310
1.13494e-310
9.40828e-311
-4.94769e-312
-1.15804e-310
-1.38688e-310
-6.68089e-311
-8.86078e-312
-6.57167e-311
-1.4517e-310
-1.36777e-310
-2.21988e-311
1.06202e-310
9.90469e-311
4.31745e-311
4.87792e-311
3.35774e-311
-4.04364e-311
-1.52066e-310
-2.55974e-310
-3.30534e-310
-3.30831e-310
-3.85194e-310
-5.46231e-310
-6.72019e-310
-7.1192e-310
-7.6107e-310
-7.21561e-310
-3.22566e-310
-3.48473e-310
-2.92865e-310
-2.16993e-310
-2.23611e-310
-2.49955e-310
-2.51375e-310
-2.52479e-310
-2.80267e-310
-3.13529e-310
-2.31474e-310
-1.51478e-310
-1.22589e-310
-8.81194e-311
-5.08879e-311
4.00719e-311
5.27759e-311
-4.1664e-312
-2.90634e-311
-4.19003e-311
-1.00099e-310
-8.91149e-311
-8.08734e-311
-4.93817e-312
3.6311e-311
5.10321e-311
8.23882e-311
5.85867e-311
5.59666e-311
1.69008e-311
-2.96077e-311
-7.50578e-311
-7.95187e-311
-5.16594e-311
-9.03423e-312
5.05586e-311
5.57811e-311
1.05083e-310
1.17596e-310
1.69951e-310
1.34224e-310
1.1755e-310
8.33238e-312
-7.97342e-311
-7.73131e-311
-3.9879e-311
1.26091e-310
2.22689e-310
2.64284e-310
2.7254e-310
2.78847e-310
2.50213e-310
2.05436e-310
1.88711e-310
1.43384e-310
3.72393e-311
-7.61838e-311
-1.47693e-310
-1.17933e-310
-9.71613e-311
-1.85724e-310
-2.57326e-310
-2.13434e-310
-6.85508e-311
6.34727e-311
3.47736e-311
4.37936e-311
7.23023e-311
4.95405e-311
-8.43619e-311
-1.70252e-310
-2.15085e-310
-1.92576e-310
-1.55612e-310
-1.61218e-310
-2.18658e-310
-3.81113e-310
-4.91842e-310
-6.5346e-310
-7.77835e-310
-5.00376e-310
-4.74865e-310
-3.06433e-310
-2.41325e-310
-2.09284e-310
-2.57971e-310
-2.90041e-310
-2.60876e-310
-2.92895e-310
-3.15677e-310
-2.44041e-310
-1.89261e-310
-1.82471e-310
-1.32573e-310
-1.39214e-310
-3.17262e-311
7.6401e-312
-2.15449e-311
-2.7058e-311
-5.56402e-311
-1.21909e-310
-5.5939e-311
-3.35022e-311
2.44542e-311
4.62323e-311
5.4791e-311
7.21851e-311
7.7483e-311
7.036e-311
3.53271e-311
3.91172e-312
-4.08056e-311
-5.08262e-311
-5.97872e-311
-6.16893e-311
2.22244e-311
3.91939e-311
1.1093e-310
1.75176e-310
1.75933e-310
1.9037e-310
1.30607e-310
4.53947e-311
-7.26359e-311
-9.04058e-311
-2.96718e-311
1.3376e-310
1.94744e-310
1.88141e-310
2.69961e-310
3.22464e-310
3.25092e-310
2.95812e-310
2.27156e-310
1.8407e-310
6.21342e-311
-4.92868e-311
-1.29689e-310
-1.39809e-310
-1.46386e-310
-2.29933e-310
-2.98615e-310
-2.16207e-310
-1.10788e-310
-4.57888e-311
-2.794e-311
3.55145e-311
5.44836e-311
3.36754e-311
-7.95033e-311
-1.56924e-310
-1.2591e-310
-4.10849e-311
3.25504e-311
3.79106e-311
-2.28477e-311
-2.01275e-310
-3.73192e-310
-5.70366e-310
-6.77919e-310
-6.50214e-310
-5.71805e-310
-4.142e-310
-2.69473e-310
-2.0445e-310
-2.0036e-310
-2.67051e-310
-2.6039e-310
-2.91626e-310
-2.37509e-310
-2.09653e-310
-2.23491e-310
-2.08927e-310
-1.67717e-310
-1.01863e-310
-8.39828e-311
-4.1543e-311
-7.15128e-311
-1.0387e-310
-1.473e-310
-1.62353e-310
-8.58802e-311
-6.55239e-311
9.42023e-312
5.0325e-311
8.78772e-311
1.07732e-310
1.16658e-310
5.96333e-311
3.69917e-311
-7.35769e-313
-8.99177e-312
-3.87929e-312
-2.90532e-311
-6.2428e-311
-3.51868e-311
2.73975e-311
1.73543e-310
2.16253e-310
1.84785e-310
2.38576e-310
1.35011e-310
8.65358e-311
-6.57725e-311
-7.45471e-311
-5.68269e-311
8.39755e-311
1.63432e-310
1.84955e-310
2.51171e-310
3.25498e-310
2.89973e-310
2.5782e-310
1.80055e-310
1.19001e-310
3.78285e-311
-7.60148e-311
-1.30691e-310
-1.66911e-310
-1.74483e-310
-1.53774e-310
-2.00087e-310
-1.61738e-310
-9.10007e-311
-5.1393e-311
-2.88696e-311
7.12405e-311
1.41798e-310
1.78638e-310
9.01363e-311
4.49358e-311
8.69207e-311
1.07538e-310
2.23746e-310
1.35689e-310
-5.05031e-311
-2.86154e-310
-4.82534e-310
-5.72902e-310
-6.23565e-310
-8.07824e-310
-7.34509e-310
-5.99262e-310
-4.27515e-310
-2.90069e-310
-2.53155e-310
-2.58737e-310
-1.98975e-310
-2.49355e-310
-2.62098e-310
-2.50477e-310
-2.84875e-310
-2.30488e-310
-2.11129e-310
-1.3304e-310
-1.57739e-310
-1.12276e-310
-1.14096e-310
-1.62216e-310
-2.05987e-310
-1.99192e-310
-1.77254e-310
-1.41828e-310
-5.2573e-312
5.46614e-311
8.85301e-311
1.52653e-310
1.84179e-310
1.15547e-310
8.83968e-311
-3.22039e-312
-6.10548e-311
-4.48477e-311
-5.20911e-311
-4.96623e-311
-6.54066e-311
3.47066e-312
1.47905e-310
2.4806e-310
2.47671e-310
2.84014e-310
1.96373e-310
1.38024e-310
-3.4828e-311
-1.17129e-310
-1.22175e-310
4.39508e-311
1.41076e-310
1.90165e-310
2.18872e-310
2.87028e-310
1.91157e-310
1.27509e-310
1.03957e-310
8.89906e-311
3.72156e-311
-4.96299e-311
-8.71894e-311
-1.15006e-310
-1.27172e-310
-8.84647e-311
-1.39399e-310
-1.25254e-310
-5.26724e-311
-1.37365e-311
8.13486e-311
1.80954e-310
2.46965e-310
3.04167e-310
2.6337e-310
2.6362e-310
2.82148e-310
2.38283e-310
1.73606e-310
6.75505e-311
-1.47066e-310
-5.03282e-310
-8.02675e-310
-8.98901e-310
-8.96461e-310
-7.74545e-310
-6.9048e-310
-5.6422e-310
-4.04867e-310
-2.71118e-310
-2.41582e-310
-2.50541e-310
-2.53124e-310
-2.55106e-310
-2.8747e-310
-2.27734e-310
-2.78614e-310
-2.39716e-310
-1.9031e-310
-1.27551e-310
-1.74277e-310
-1.56911e-310
-2.047e-310
-2.10586e-310
-1.98778e-310
-1.92697e-310
-1.32246e-310
-1.12706e-310
-4.52641e-311
9.60852e-311
1.35403e-310
1.66648e-310
2.08822e-310
1.43751e-310
1.16668e-310
4.31578e-311
-3.38222e-311
-5.03386e-311
-6.13902e-311
-7.94886e-311
-1.21584e-310
-8.74743e-311
7.60205e-311
2.11506e-310
3.08771e-310
3.29497e-310
2.08194e-310
1.4616e-310
-2.75932e-311
-1.63714e-310
-1.93404e-310
-4.06729e-311
6.78794e-311
1.308e-310
1.59705e-310
1.58555e-310
1.09217e-310
5.59643e-311
4.19014e-311
2.63471e-311
-1.3858e-312
-3.96085e-311
-1.35355e-311
-7.28204e-311
-1.05144e-310
-3.0011e-311
-3.60306e-311
1.08668e-311
1.52977e-311
8.67801e-311
1.57621e-310
2.49098e-310
3.445e-310
4.00968e-310
3.97793e-310
3.42124e-310
2.85514e-310
1.63911e-310
-4.9109e-312
-1.55356e-310
-3.20253e-310
-6.65e-310
-9.44106e-310
-1.0799e-309
-1.11265e-309
-6.58286e-310
-5.986e-310
-4.42433e-310
-3.14758e-310
-1.77577e-310
-2.12784e-310
-2.57446e-310
-2.12279e-310
-2.44607e-310
-2.46913e-310
-2.45212e-310
-2.23246e-310
-1.70441e-310
-1.37194e-310
-1.08033e-310
-1.07478e-310
-1.34242e-310
-1.68274e-310
-2.04477e-310
-1.95575e-310
-1.60339e-310
-5.54087e-311
-1.65843e-311
-1.94186e-311
1.25953e-310
1.90803e-310
1.98124e-310
1.75427e-310
1.31563e-310
1.18478e-310
6.56627e-311
1.65001e-311
-1.45045e-311
-7.4114e-311
-1.37514e-310
-1.7956e-310
-1.32315e-310
-2.28498e-312
1.93985e-310
3.07368e-310
3.5475e-310
2.10096e-310
1.13521e-310
-6.13612e-311
-2.27123e-310
-2.57508e-310
-1.13315e-310
3.9069e-312
3.25125e-311
6.80086e-311
7.23532e-311
6.11441e-311
1.38123e-311
-4.20964e-312
-9.96988e-312
-3.04497e-311
-2.25575e-311
1.53869e-311
-5.785e-311
-3.94362e-311
2.98897e-311
4.25489e-311
6.41802e-311
6.77782e-311
1.75304e-310
1.63689e-310
1.81352e-310
2.81828e-310
4.0752e-310
3.94241e-310
3.13806e-310
1.67429e-310
7.24719e-311
-8.10206e-311
-2.40505e-310
-4.7409e-310
-7.4373e-310
-9.97244e-310
-1.09039e-309
-1.05516e-309
-6.06471e-310
-6.04116e-310
-4.55103e-310
-3.01639e-310
-1.63596e-310
-1.55577e-310
-2.02442e-310
-1.98877e-310
-1.99422e-310
-1.68931e-310
-1.66481e-310
-1.57186e-310
-1.06969e-310
-8.37399e-311
-8.24375e-311
-1.20724e-310
-1.42141e-310
-1.60464e-310
-1.88464e-310
-2.13019e-310
-1.86459e-310
-1.03257e-310
-6.29435e-311
1.7842e-311
1.22571e-310
2.43438e-310
2.75401e-310
2.40173e-310
1.96266e-310
1.51704e-310
1.22466e-310
5.37776e-311
1.23088e-311
-4.31181e-311
-1.42487e-310
-2.25188e-310
-1.81649e-310
-1.12196e-310
1.01585e-310
2.23575e-310
2.75573e-310
1.44227e-310
3.21783e-311
-9.30812e-311
-2.3723e-310
-2.97929e-310
-1.7718e-310
-3.63806e-311
-7.30132e-312
2.77561e-311
4.78396e-311
-2.71094e-312
-5.03057e-311
-9.95705e-311
-5.10929e-311
-5.51181e-311
-8.01363e-311
-1.52765e-311
1.60939e-311
1.95773e-311
3.23146e-311
3.13102e-311
5.41599e-311
6.10654e-311
1.08802e-310
8.45934e-311
1.06438e-310
2.40394e-310
3.43466e-310
2.97806e-310
2.03956e-310
2.57922e-311
-9.34e-311
-1.43914e-310
-2.58968e-310
-4.80532e-310
-7.1415e-310
-9.22192e-310
-9.81182e-310
-9.39105e-310
-7.36588e-310
-6.59985e-310
-5.30186e-310
-3.30127e-310
-2.53701e-310
-2.03721e-310
-2.66433e-310
-2.67377e-310
-2.53594e-310
-2.35676e-310
-1.73185e-310
-1.43697e-310
-6.49008e-311
-9.81125e-311
-8.42635e-311
-1.31083e-310
-1.72269e-310
-2.04206e-310
-2.45929e-310
-2.66149e-310
-2.14471e-310
-1.37438e-310
-5.76302e-311
4.74146e-311
1.57078e-310
2.90141e-310
3.34762e-310
3.20687e-310
2.60966e-310
2.16256e-310
1.66796e-310
9.72156e-311
5.13193e-311
-4.61927e-311
-1.66503e-310
-2.55692e-310
-2.64164e-310
-2.36503e-310
-2.10563e-311
1.33331e-310
1.83971e-310
8.29968e-311
-2.25923e-311
-9.90142e-311
-2.51428e-310
-2.73615e-310
-2.32499e-310
-1.08087e-310
-4.44027e-311
2.83062e-312
1.94959e-311
-6.89001e-311
-1.23614e-310
-1.97938e-310
-1.14394e-310
-1.06027e-310
-1.00331e-310
-2.98283e-312
7.82535e-311
7.86717e-311
2.21436e-311
-1.55509e-311
-4.42621e-311
-2.54321e-311
-2.65282e-312
2.95541e-311
9.3473e-311
1.79626e-310
2.05994e-310
1.83767e-310
6.53537e-311
-1.2515e-310
-1.65274e-310
-1.91569e-310
-1.46472e-310
-3.28581e-310
-5.253e-310
-6.53867e-310
-6.21272e-310
-5.9882e-310
-8.6776e-310
-7.58235e-310
-5.84594e-310
-4.63613e-310
-3.78845e-310
-3.33244e-310
-3.77939e-310
-3.34448e-310
-2.81666e-310
-2.52591e-310
-2.11841e-310
-1.36412e-310
-6.33349e-311
-8.35119e-311
-7.12247e-311
-9.61416e-311
-1.84461e-310
-2.51772e-310
-3.03542e-310
-2.44729e-310
-1.96154e-310
-1.41274e-310
-6.01734e-311
5.78182e-311
1.57965e-310
3.01518e-310
3.68487e-310
3.42034e-310
2.70893e-310
2.51609e-310
1.86759e-310
1.40065e-310
1.32774e-310
-1.38185e-311
-1.9911e-310
-2.82544e-310
-3.8346e-310
-3.32208e-310
-1.26047e-310
5.44419e-311
1.51667e-310
8.93568e-311
-2.81826e-311
-1.18038e-310
-2.27626e-310
-2.61098e-310
-2.25329e-310
-1.67014e-310
-7.57467e-311
-2.80223e-311
-3.66507e-311
-1.30157e-310
-1.58409e-310
-2.60364e-310
-1.87699e-310
-1.24149e-310
-6.81567e-311
-6.40102e-313
6.97002e-311
1.03066e-310
4.0343e-311
-2.51368e-311
-9.89733e-311
-4.12973e-311
-5.82285e-311
-5.20882e-311
-3.73058e-311
9.85155e-311
1.03156e-310
9.10974e-311
6.52251e-311
-5.82118e-311
-1.06368e-310
-6.56692e-311
-3.41703e-311
-1.38379e-310
-1.79459e-310
-2.98924e-310
-3.86272e-310
-4.6174e-310
-1.17357e-309
-1.03892e-309
-7.9286e-310
-5.05371e-310
-3.88153e-310
-4.02757e-310
-3.24734e-310
-3.62071e-310
-3.83369e-310
-3.43956e-310
-2.38575e-310
-1.04123e-310
-1.59664e-311
2.71933e-311
-6.6055e-312
-4.26711e-311
-1.87966e-310
-2.28366e-310
-2.80014e-310
-2.81616e-310
-2.15785e-310
-1.0529e-310
-4.15639e-311
4.57182e-311
1.64977e-310
2.75262e-310
3.05579e-310
3.48661e-310
3.03585e-310
2.79245e-310
2.25882e-310
2.06932e-310
1.85702e-310
-1.07015e-311
-2.14017e-310
-3.41616e-310
-4.68792e-310
-3.97113e-310
-2.41298e-310
-4.24137e-311
9.81146e-311
4.09425e-311
-4.45978e-312
-9.12764e-311
-1.94373e-310
-2.89024e-310
-2.93055e-310
-2.6185e-310
-1.62583e-310
-3.88134e-311
-5.50574e-311
-1.78564e-310
-2.14106e-310
-2.64434e-310
-2.21873e-310
-1.49741e-310
-9.14935e-311
-2.12383e-311
8.90457e-311
1.61244e-310
4.56107e-311
-3.21081e-311
-5.8008e-311
-8.53015e-311
-1.15588e-310
-1.4242e-310
-1.04599e-310
9.99942e-312
1.14839e-310
1.13105e-310
1.27463e-310
5.50876e-312
2.75399e-311
1.05902e-311
4.0177e-313
-6.15325e-313
-4.66004e-311
-2.03614e-310
-4.41368e-310
-5.90064e-310
-1.08904e-309
-1.07601e-309
-9.43499e-310
-6.96269e-310
-4.70999e-310
-3.76437e-310
-3.7593e-310
-4.23842e-310
-3.8776e-310
-3.26422e-310
-2.43102e-310
-9.31367e-311
-4.01326e-312
9.3425e-311
1.31353e-310
8.19264e-311
-7.14379e-311
-2.04182e-310
-2.45867e-310
-2.80114e-310
-2.56418e-310
-1.32306e-310
-3.41522e-311
8.08426e-311
2.00112e-310
3.27154e-310
3.38364e-310
3.71478e-310
3.29416e-310
3.07551e-310
2.66e-310
2.03791e-310
1.52986e-310
1.08994e-311
-1.94319e-310
-3.53002e-310
-4.99851e-310
-4.78245e-310
-2.77684e-310
-6.9381e-311
7.71623e-311
3.33393e-311
2.7186e-311
-6.61396e-311
-1.80388e-310
-3.02488e-310
-3.78471e-310
-3.44255e-310
-1.8023e-310
-7.39227e-311
-5.22628e-311
-1.88722e-310
-2.43164e-310
-2.9028e-310
-2.54673e-310
-1.6015e-310
-9.46465e-311
-2.16476e-311
1.03487e-310
1.93365e-310
8.57712e-311
-8.76184e-312
-2.9231e-311
-1.16403e-310
-1.59013e-310
-1.63009e-310
-1.23677e-310
-3.15388e-311
1.04285e-310
9.91189e-311
1.74674e-310
5.86172e-311
-3.17814e-311
-1.13581e-310
-1.97839e-310
-1.69635e-310
-2.84668e-310
-4.7623e-310
-7.07591e-310
-8.94423e-310
-9.99283e-310
-9.92858e-310
-9.30663e-310
-7.31844e-310
-4.89407e-310
-3.11261e-310
-3.47866e-310
-3.55975e-310
-2.84592e-310
-2.64509e-310
-2.12888e-310
-1.98827e-311
7.30875e-311
1.69729e-310
2.4988e-310
2.06858e-310
4.21465e-311
-9.19066e-311
-1.88309e-310
-2.91431e-310
-2.73254e-310
-2.11789e-310
-6.17262e-311
7.26315e-311
2.11968e-310
3.14552e-310
3.52618e-310
3.8866e-310
2.87244e-310
2.9364e-310
2.61036e-310
2.02165e-310
1.81006e-310
4.25453e-311
-1.78915e-310
-3.41676e-310
-5.4315e-310
-5.41105e-310
-3.85151e-310
-1.47649e-310
4.12786e-311
7.30062e-311
8.09779e-311
3.34027e-311
-1.58152e-310
-2.94378e-310
-3.8192e-310
-3.6774e-310
-2.63387e-310
-1.37668e-310
-9.5825e-311
-1.95958e-310
-2.50021e-310
-2.69501e-310
-2.76139e-310
-1.96383e-310
-1.46927e-310
-7.00625e-311
5.92519e-311
1.64409e-310
8.00568e-311
-6.84871e-312
-6.92717e-311
-1.11995e-310
-1.76264e-310
-1.8322e-310
-1.50143e-310
-7.52484e-311
5.56745e-311
5.18205e-311
6.44906e-311
-5.23929e-311
-2.17993e-310
-3.37789e-310
-4.30477e-310
-5.7428e-310
-8.02321e-310
-1.05985e-309
-1.20881e-309
-1.31069e-309
-9.52214e-310
-9.21084e-310
-8.96602e-310
-7.33486e-310
-4.72204e-310
-2.89328e-310
-2.09146e-310
-2.41536e-310
-2.16425e-310
-2.23576e-310
-1.56296e-310
-1.65758e-312
1.70417e-310
2.67986e-310
3.08164e-310
2.49419e-310
1.1075e-310
9.93765e-312
-1.16801e-310
-2.22385e-310
-2.0482e-310
-2.05597e-310
-7.96338e-311
7.88858e-311
2.51965e-310
3.33311e-310
3.48817e-310
3.58025e-310
3.08842e-310
2.75031e-310
2.50258e-310
2.07522e-310
2.08041e-310
9.90697e-311
-1.16819e-310
-3.74742e-310
-6.02733e-310
-6.09135e-310
-4.76203e-310
-2.27451e-310
-3.59932e-311
8.68994e-311
9.10982e-311
4.35224e-311
-1.28352e-310
-2.72123e-310
-3.32161e-310
-3.47398e-310
-2.91343e-310
-2.29502e-310
-1.573e-310
-2.15972e-310
-2.7414e-310
-2.48459e-310
-2.78266e-310
-2.17816e-310
-1.8028e-310
-1.50831e-310
-3.61433e-311
9.82608e-311
4.63002e-311
6.93767e-313
-6.3255e-311
-1.20275e-310
-1.61081e-310
-2.25293e-310
-1.84942e-310
-1.22521e-310
-7.52538e-311
-1.08553e-310
-1.02779e-310
-2.03026e-310
-3.6418e-310
-5.87043e-310
-7.89298e-310
-9.82433e-310
-1.19276e-309
-1.42009e-309
-1.41798e-309
-1.43522e-309
-6.53254e-310
-5.98515e-310
-6.24536e-310
-6.11001e-310
-4.22337e-310
-2.63794e-310
-1.65102e-310
-2.21979e-310
-2.06502e-310
-2.28098e-310
-2.03325e-310
-7.6596e-311
9.16101e-311
2.72366e-310
2.80722e-310
2.55795e-310
1.65224e-310
6.0326e-311
-1.04483e-310
-2.27399e-310
-1.82238e-310
-1.81648e-310
-9.26254e-311
1.11383e-310
2.87235e-310
3.89712e-310
4.15483e-310
3.88659e-310
3.02687e-310
2.60998e-310
2.35071e-310
2.07457e-310
2.16076e-310
1.38932e-310
-1.19896e-310
-4.07623e-310
-6.06175e-310
-7.10297e-310
-5.7694e-310
-2.78216e-310
-5.21516e-311
9.61115e-311
9.09307e-311
5.33698e-311
-3.61153e-311
-1.92418e-310
-3.1142e-310
-3.61694e-310
-3.26449e-310
-2.36263e-310
-1.70771e-310
-2.15319e-310
-2.6258e-310
-3.02047e-310
-3.11468e-310
-2.4117e-310
-2.12359e-310
-2.19553e-310
-1.41583e-310
-2.97773e-312
2.27011e-311
6.32458e-312
-4.15606e-311
-1.07394e-310
-1.69954e-310
-2.51578e-310
-2.2814e-310
-1.89879e-310
-1.37467e-310
-8.48222e-311
-9.65475e-311
-2.1955e-310
-3.99858e-310
-6.9668e-310
-9.34103e-310
-1.11859e-309
-1.37126e-309
-1.49351e-309
-1.50164e-309
-1.37678e-309
-5.21686e-310
-5.1594e-310
-4.65031e-310
-4.35843e-310
-2.92257e-310
-1.67665e-310
-3.23249e-311
-5.96459e-311
-1.98077e-310
-2.45653e-310
-2.45773e-310
-6.84788e-311
1.32805e-310
2.94551e-310
3.9309e-310
3.62399e-310
2.23036e-310
9.00314e-311
-1.22094e-310
-2.14103e-310
-2.14084e-310
-1.95799e-310
-1.18218e-310
1.20125e-310
2.8902e-310
4.06577e-310
4.39389e-310
3.32352e-310
2.46248e-310
2.10106e-310
2.00301e-310
2.01278e-310
2.06235e-310
1.86947e-310
-5.90774e-311
-3.20093e-310
-5.90284e-310
-7.42535e-310
-6.45822e-310
-3.53798e-310
-2.24745e-311
1.35329e-310
1.36545e-310
9.68852e-311
3.26428e-311
-1.27918e-310
-3.02091e-310
-3.70685e-310
-3.32898e-310
-2.10982e-310
-1.65209e-310
-1.86089e-310
-2.57722e-310
-3.29955e-310
-3.26272e-310
-2.9882e-310
-3.05894e-310
-2.89918e-310
-1.42453e-310
-7.17856e-311
1.54798e-311
3.40451e-313
-8.92474e-311
-1.50071e-310
-1.78483e-310
-2.6427e-310
-2.8529e-310
-2.09953e-310
-7.40652e-311
-2.44e-311
-2.82031e-311
-1.92487e-310
-4.73566e-310
-7.00294e-310
-9.81161e-310
-1.19123e-309
-1.22516e-309
-1.26447e-309
-1.21219e-309
-1.10219e-309
-6.63087e-310
-5.94502e-310
-4.69961e-310
-3.90179e-310
-1.722e-310
-8.00136e-311
2.22333e-311
-2.2414e-311
-1.20053e-310
-2.30671e-310
-1.93925e-310
-3.89827e-311
1.06175e-310