/*--------------------------------*- C++ -*----------------------------------*\
  =========                 |
  \\      /  F ield         | OpenFOAM: The Open Source CFD Toolbox
   \\    /   O peration     | Website:  https://openfoam.org
    \\  /    A nd           | Version:  11
     \\/     M anipulation  |
\*---------------------------------------------------------------------------*/
FoamFile
{
    format      ascii;
    class       volScalarField;
    location    "100";
    object      C;
}
// * * * * * * * * * * * * * * * * * * * * * * * * * * * * * * * * * * * * * //

dimensions      [0 0 0 1 0 0 0];

internalField   nonuniform List<scalar> 
332800
(
-3.08224e-311
-5.17703e-311
-4.11958e-311
-5.39894e-312
4.66715e-311
6.1086e-311
5.74597e-311
4.96925e-311
6.36207e-311
5.80619e-311
2.85892e-311
4.28284e-311
1.83971e-311
-4.06e-311
-1.31207e-311
-3.44203e-311
-2.56477e-311
-2.77518e-311
-2.9591e-312
4.49993e-312
2.29615e-311
5.09164e-311
2.19152e-311
4.26264e-311
2.42873e-311
-5.36227e-312
-2.90836e-311
-5.15274e-311
-8.36101e-311
-1.08899e-311
-1.37974e-311
-2.65784e-311
6.13417e-312
3.40017e-311
-4.79049e-311
-5.45224e-311
-1.30484e-311
4.82278e-311
1.57442e-311
-2.21037e-311
-2.19947e-311
-1.15826e-311
8.15666e-312
-3.47911e-314
-7.5609e-312
2.58347e-312
2.06526e-311
4.0303e-311
1.88502e-311
1.45801e-311
1.44698e-311
-1.98577e-311
-2.93559e-312
1.15504e-311
-4.00525e-311
-5.37218e-311
3.53435e-311
1.75304e-311
-3.26273e-311
-1.94748e-311
-8.07892e-312
1.16706e-311
3.84533e-311
2.32994e-311
6.0339e-311
5.32516e-311
5.33092e-311
5.80366e-312
-5.21498e-311
4.05408e-312
1.07382e-313
2.60016e-311
2.3967e-311
1.8007e-311
1.88695e-311
1.177e-311
1.3177e-311
1.30415e-311
-1.1588e-311
9.24801e-312
-3.56526e-311
8.15031e-314
-3.58199e-311
-3.83475e-311
-1.38511e-311
-1.45991e-311
-2.34604e-311
-3.50071e-311
-3.83836e-312
-1.90679e-311
-8.09821e-312
2.37162e-311
4.15349e-311
6.80851e-311
6.16487e-311
7.13538e-311
5.99646e-311
8.55141e-312
-7.33203e-312
-1.26673e-312
-6.90717e-312
-4.09771e-311
2.14764e-311
-2.3459e-311
-4.13132e-311
-3.95979e-312
4.79763e-311
4.58201e-311
1.44614e-311
-1.57168e-311
-5.39873e-311
-5.79919e-311
-6.9682e-311
-6.65372e-311
9.7159e-313
-9.97238e-312
-5.9049e-311
-8.76971e-311
-3.46186e-311
-1.30989e-311
-6.19318e-311
-6.13913e-311
-5.80881e-311
7.92266e-313
5.08238e-312
-4.85484e-311
-2.07665e-311
6.1237e-312
5.51128e-311
5.80102e-311
4.62532e-311
2.45452e-311
6.97876e-313
-2.43582e-311
-1.31362e-311
-4.89596e-311
-3.10658e-311
-5.34735e-312
-3.12959e-311
-8.32757e-312
-1.1e-311
-1.32027e-311
1.66584e-311
-4.27984e-311
-6.34787e-311
-2.02823e-311
6.29149e-312
2.09075e-311
4.69526e-311
4.91644e-311
3.96914e-311
-7.34345e-312
-1.72045e-311
-6.8603e-312
7.45387e-312
3.10665e-311
5.02047e-311
8.76125e-311
3.95342e-311
-3.98046e-311
-3.09931e-311
-4.30201e-311
-1.52815e-311
-4.99718e-312
3.30295e-311
1.55769e-311
-3.51432e-311
-1.0989e-311
-3.6762e-311
-6.69792e-311
-3.42986e-311
-1.22902e-311
-2.16808e-311
7.05524e-311
1.12703e-310
6.84949e-311
1.07544e-310
6.77272e-311
2.96787e-312
-9.39638e-312
-1.75296e-311
-6.29333e-311
-3.7282e-311
-3.18905e-311
-2.20883e-311
3.29576e-311
5.17519e-311
6.82588e-311
3.1367e-311
-1.54874e-311
-6.44299e-311
-3.51637e-311
-2.26437e-311
-5.89838e-311
-2.12216e-311
-2.4501e-312
-7.53776e-311
-7.4982e-311
-5.92511e-311
2.67788e-311
-5.09569e-311
-3.97633e-311
-1.10349e-311
-3.03463e-312
7.22537e-313
-2.94534e-311
-2.44047e-311
3.58014e-312
2.16828e-311
-2.25929e-311
-2.08948e-311
1.49796e-311
-2.2293e-311
5.62363e-312
3.86614e-311
-2.62116e-311
-3.41145e-311
-6.72674e-312
-2.19895e-311
-2.11424e-311
2.01429e-311
9.89549e-312
2.09813e-311
-2.98696e-311
-9.70221e-311
-3.59978e-311
3.71422e-311
8.70013e-311
1.01089e-310
7.11326e-311
-4.41445e-311
-2.15803e-311
5.90522e-312
1.17584e-311
1.8493e-311
5.9117e-312
3.48976e-311
7.2935e-311
5.10771e-313
-1.09266e-310
-6.30589e-311
-4.14037e-311
1.18347e-311
2.94227e-311
5.8487e-311
3.4706e-311
-2.46814e-311
-5.67393e-311
-9.65749e-311
-8.00994e-311
-8.80948e-312
-2.04549e-311
-7.178e-311
-3.99756e-311
5.20851e-311
8.45726e-311
9.0416e-311
5.5578e-311
4.29277e-311
5.64394e-311
3.77998e-311
-1.29418e-311
-3.0036e-311
2.98793e-312
3.38681e-311
4.40727e-311
5.24881e-311
7.4278e-311
3.06226e-311
4.35692e-311
-7.39686e-312
9.84387e-312
3.83214e-311
-1.2826e-311
-6.82074e-312
8.62943e-312
-6.04752e-311
-5.2552e-311
-2.38062e-312
2.62805e-311
1.58246e-311
-2.45359e-311
7.26791e-311
6.69474e-311
7.83243e-311
3.89256e-311
6.77989e-312
-5.23885e-311
-5.51525e-313
-6.74459e-311
-6.7322e-311
-4.56536e-311
-3.25977e-311
8.6602e-311
8.27297e-311
-5.50035e-312
6.92609e-312
3.62632e-312
2.31329e-311
1.36411e-311
2.79776e-311
3.01426e-311
3.53009e-312
-3.0632e-311
-5.39268e-311
2.53848e-312
7.19618e-311
6.60449e-311
5.35182e-311
3.11499e-311
-2.28811e-311
1.32354e-312
-1.13598e-311
-1.05369e-311
-4.16456e-311
-4.92618e-311
-2.20112e-311
3.62377e-312
-1.26853e-310
-2.32235e-310
-1.66552e-310
2.36754e-312
7.26929e-311
7.0475e-311
7.84742e-311
5.85303e-311
7.41385e-312
-8.25369e-311
-1.22147e-310
-1.3344e-310
-3.9441e-311
-3.14972e-311
-1.06691e-310
-8.88708e-311
-3.28234e-311
1.96465e-311
6.68712e-311
4.59156e-311
1.83662e-311
4.46629e-311
4.29681e-311
4.4523e-312
-6.34445e-311
-3.0865e-311
2.34073e-311
1.70109e-311
2.7471e-311
5.28467e-311
5.43173e-311
8.24125e-311
3.81103e-311
1.11191e-311
4.69427e-311
5.97247e-311
3.48074e-311
4.67875e-311
1.46188e-311
-3.08094e-312
2.24673e-311
-8.67761e-312
2.29323e-311
-1.99094e-311
7.46944e-311
4.94191e-311
6.68637e-311
5.17662e-311
-1.17531e-311
-1.99849e-311
2.28041e-311
1.51049e-311
-3.37928e-311
-6.8471e-311
-2.43882e-312
1.06957e-310
8.34296e-311
-1.65292e-311
1.42708e-312
4.28751e-311
5.85727e-311
7.12578e-311
-4.55419e-312
-6.18877e-311
-1.00571e-310
-1.0007e-310
-6.67619e-311
9.89342e-312
6.88163e-311
5.75665e-311
5.12411e-311
7.15548e-311
4.28297e-311
1.6544e-311
-8.80558e-313
-4.1703e-311
-8.83848e-311
-3.53719e-311
1.42278e-313
-7.96896e-311
-1.55052e-310
-3.08298e-310
-6.25115e-311
1.62676e-311
4.24211e-311
1.1348e-310
8.30267e-311
1.44236e-310
6.28747e-311
-4.31525e-311
-1.65679e-310
-1.94891e-310
-1.26911e-310
-1.09816e-310
-1.21044e-310
-1.37986e-310
-3.38701e-311
2.36701e-311
7.48867e-311
7.30835e-311
5.01998e-311
4.81415e-311
4.18489e-311
-2.776e-311
-9.95855e-311
-9.26682e-311
-3.46526e-311
-4.90055e-312
-1.56277e-311
1.01787e-311
5.86856e-311
9.13982e-311
5.94896e-311
1.5701e-311
3.3414e-311
5.83133e-311
6.56858e-311
4.5828e-311
2.26791e-311
9.16929e-313
2.28417e-312
7.12412e-313
-4.6864e-314
-1.41697e-311
7.62325e-312
3.64231e-311
6.91154e-311
3.62173e-311
-3.24415e-311
-1.50001e-311
5.71182e-311
7.10612e-311
-1.7355e-311
-1.70422e-311
5.75827e-311
1.08197e-310
2.5974e-311
-1.9055e-311
-4.2293e-312
1.5034e-311
3.85816e-311
5.47101e-311
-4.78924e-311
-1.17461e-310
-1.51221e-310
-1.24831e-310
-7.54725e-311
3.90277e-311
7.3497e-311
6.54603e-311
3.27975e-311
2.37026e-311
1.61805e-311
-1.75407e-311
-5.41522e-311
-7.50489e-311
-7.82284e-311
-3.89079e-311
2.45235e-311
3.05233e-311
-1.58428e-310
-2.42123e-310
9.63687e-311
6.04704e-312
5.34256e-312
8.43121e-311
1.0099e-310
1.33241e-310
1.29584e-310
2.21039e-311
-9.85893e-311
-1.64635e-310
-1.15218e-310
-9.62273e-311
-1.31042e-310
-1.26931e-310
-6.09118e-311
3.03616e-311
5.32197e-311
7.59751e-311
4.2882e-311
5.12197e-311
6.25027e-312
-5.91199e-311
-1.27324e-310
-1.17495e-310
-7.10259e-311
-1.21343e-311
-2.26317e-311
-5.23714e-311
-6.7234e-312
3.61551e-311
4.16461e-311
4.98617e-311
4.89374e-311
4.17604e-311
5.40173e-311
3.598e-312
-1.05019e-311
-3.80367e-311
-2.50763e-312
-8.10205e-312
-2.34536e-311
-1.10835e-311
6.24672e-311
9.31024e-311
9.47945e-311
4.95222e-311
-6.26253e-311
1.12138e-311
-8.95817e-312
1.82744e-313
-5.50631e-311
4.65269e-311
1.1304e-310
1.44486e-310
4.02132e-311
2.57264e-311
8.26769e-311
6.81225e-311
7.15738e-311
1.14363e-311
-7.50104e-311
-9.15017e-311
-1.03846e-310
-1.28431e-310
-1.12874e-310
1.13919e-311
7.00826e-311
1.83212e-311
-3.0914e-312
2.00647e-311
1.68771e-311
1.16677e-311
-7.44965e-312
7.46282e-312
-2.86697e-311
-2.46633e-311
-2.7778e-311
-5.21535e-311
-9.46311e-311
-1.46782e-310
2.27363e-310
1.04855e-310
5.8651e-311
1.35567e-311
1.13534e-310
1.20252e-310
1.09712e-310
3.77034e-311
-4.35963e-311
-4.31128e-311
-7.10856e-311
-5.92435e-311
-1.38232e-310
-1.50381e-310
-1.1772e-310
-4.11731e-311
2.38321e-311
2.90786e-311
6.16371e-311
5.67225e-311
3.40911e-311
-2.87431e-311
-1.00137e-310
-1.16256e-310
-1.385e-310
-6.13877e-311
1.71556e-311
-3.70657e-311
-3.27695e-311
2.58473e-311
3.43649e-311
-1.37184e-311
3.45454e-311
6.62193e-312
3.38705e-311
-3.85928e-311
-5.48218e-311
-7.93318e-311
1.41651e-311
-8.6709e-311
-2.51757e-311
-6.57866e-311
8.26172e-311
1.00292e-310
1.06945e-310
4.97489e-311
-2.70618e-311
3.73663e-312
-8.10664e-311
-7.03004e-311
-8.02923e-311
3.23322e-311
7.57086e-311
5.85163e-311
3.66099e-311
7.34934e-311
1.47647e-310
1.67022e-310
1.24191e-310
3.17523e-312
-4.85913e-311
-4.3558e-311
-5.8438e-311
-9.46868e-311
-1.00981e-310
-6.59679e-312
6.03317e-311
3.76949e-311
-7.98677e-313
7.07209e-311
5.97199e-311
3.03917e-311
6.35948e-311
3.75621e-312
-1.86355e-311
-2.7145e-311
-1.00105e-310
-8.76423e-311
-9.43002e-311
-7.48867e-311
2.40913e-310
2.37279e-310
1.17152e-310
1.27289e-310
1.4993e-310
1.23259e-310
9.53695e-311
4.22877e-311
-1.94107e-311
-6.75203e-311
-7.09723e-311
-5.11073e-311
-1.12419e-310
-1.89704e-310
-1.89263e-310
-1.13073e-310
-1.97929e-311
-6.69995e-312
2.28921e-311
3.79433e-311
4.77707e-311
3.47885e-311
-3.89872e-311
-1.19619e-310
-1.41176e-310
-5.18092e-311
2.32905e-311
-2.57993e-312
-6.77707e-313
2.72437e-311
7.44997e-311
-3.21381e-311
2.20622e-311
-3.81996e-312
1.50414e-311
-3.59645e-311
-4.99176e-311
-1.03782e-310
-3.61475e-311
-8.8397e-311
-8.68249e-311
-6.10859e-311
3.3202e-311
8.28699e-311
1.09642e-310
1.837e-311
1.4922e-311
2.11245e-311
-3.99273e-311
-1.07053e-310
-1.15866e-310
7.38422e-312
4.80661e-311
2.56608e-311
8.05834e-312
6.28685e-311
1.43721e-310
1.4056e-310
9.8508e-311
1.11991e-312
1.95172e-311
-1.285e-311
-1.81483e-311
-1.08419e-312
-1.45616e-311
7.42119e-311
7.52949e-311
5.97068e-311
2.07697e-311
3.54948e-311
1.17713e-310
5.49365e-311
5.90718e-311
4.51703e-311
-5.13165e-311
-1.45827e-310
-1.09117e-310
-1.71774e-311
3.88507e-311
1.19824e-310
1.20077e-311
-2.53791e-311
-3.94117e-311
1.5511e-310
1.67556e-310
1.75867e-310
1.59002e-310
5.27729e-311
-6.42445e-311
-1.00513e-310
-4.67488e-311
-1.14976e-311
-8.93228e-311
-1.88595e-310
-2.07666e-310
-1.15371e-310
-5.94829e-311
-7.64805e-311
-6.20995e-312
5.21305e-311
6.81456e-311
8.11649e-311
1.02397e-311
-7.97036e-311
-1.41709e-310
-9.2567e-311
2.51847e-311
4.15606e-311
6.26634e-311
4.97831e-311
7.40625e-311
-1.31082e-311
-1.07638e-311
-1.16603e-312
2.19557e-311
7.73583e-314
7.77526e-312
-8.93499e-311
-6.34772e-311
-2.11946e-311
-1.00446e-310
-6.98015e-312
4.553e-311
9.3613e-311
1.03285e-310
-1.44311e-311
-4.76124e-311
-2.73401e-312
-2.3481e-311
-9.50448e-311
-8.90704e-311
3.5579e-311
2.5381e-311
9.87219e-312
-5.70406e-312
3.317e-311
1.29296e-310
9.92191e-311
4.44248e-311
3.46972e-311
6.97722e-311
7.05189e-311
1.04848e-310
9.52527e-311
1.06732e-310
1.16749e-310
6.63155e-311
6.22756e-311
4.47202e-311
5.09391e-311
1.16188e-310
8.29968e-311
4.26345e-311
5.17714e-311
-7.49924e-312
-9.22245e-311
2.21999e-311
1.18242e-310
2.0061e-310
2.43214e-310
-2.06357e-310
-2.46411e-310
-1.06185e-310
3.8772e-311
5.18383e-311
9.31407e-311
1.72551e-310
1.06025e-310
-5.78187e-311
-2.41151e-311
2.38407e-312
1.25226e-311
-7.3482e-311
-1.34097e-310
-1.2826e-310
-5.09802e-311
-5.26631e-311
-8.38684e-311
-1.69635e-311
3.452e-311
7.0313e-311
7.80897e-311
3.38165e-311
-3.86927e-311
-1.37441e-310
-1.20532e-310
7.10724e-312
7.7294e-311
6.2914e-311
2.54123e-311
5.05477e-311
2.84744e-311
-1.47903e-311
-1.37864e-311
-1.97952e-311
-1.96336e-312
-1.60752e-311
-6.80963e-311
-1.97317e-311
1.06789e-311
1.51748e-312
1.73189e-311
4.68262e-311
6.13019e-311
1.06114e-310
-2.65486e-312
-6.22052e-311
-3.90471e-311
-8.3323e-311
-7.2909e-311
-1.02584e-312
6.23603e-311
3.21048e-312
-2.59442e-311
1.17287e-312
1.54518e-311
5.99325e-311
5.34702e-311
4.98305e-311
2.89544e-311
5.38685e-311
1.02224e-310
5.79899e-311
5.39274e-311
9.92268e-311
6.04534e-311
8.52204e-312
5.04131e-311
5.59228e-311
8.96729e-311
1.88846e-310
1.73135e-310
1.25349e-310
1.29676e-310
1.19872e-310
9.39227e-311
1.18844e-310
2.30123e-310
3.85322e-310
4.66832e-310
-3.46856e-310
-2.72636e-310
-1.03003e-310
-4.12735e-311
1.53034e-311
7.20259e-311
1.85391e-310
1.80626e-310
3.62714e-311
3.47365e-311
3.14687e-311
-8.53946e-313
-4.94503e-311
-1.20853e-310
-1.3163e-310
-3.55163e-311
-5.00224e-311
-6.95517e-311
-3.9835e-311
4.83241e-311
6.25278e-311
7.27077e-311
2.85776e-311
-5.04595e-311
-1.19949e-310
-1.17002e-310
-3.64566e-311
1.11325e-311
6.15665e-312
-4.25948e-311
-1.07893e-311
6.96016e-312
2.81181e-311
3.34916e-311
2.71442e-311
2.06427e-311
2.40191e-312
-4.53062e-311
-2.00082e-311
1.3528e-311
3.59698e-311
-1.3625e-311
-1.70403e-311
-4.3565e-312
1.05819e-310
2.79475e-311
-3.50015e-311
-4.81119e-311
-8.54153e-311
-8.05156e-311
1.67395e-311
5.30509e-311
-3.83289e-311
-9.96733e-311
-5.79224e-311
-7.95936e-312
2.36843e-312
-8.41162e-312
3.06224e-311
5.19461e-312
1.70206e-311
6.82029e-311
5.45033e-311
4.11334e-311
4.64356e-311
-5.81771e-312
2.25863e-312
1.08363e-311
5.92008e-311
1.38008e-310
2.04573e-310
2.6502e-310
1.92931e-310
1.64198e-310
1.68953e-310
1.58168e-310
3.16915e-310
3.39134e-310
4.09272e-310
4.72463e-310
-3.52886e-310
-3.52071e-310
-2.06804e-310
-1.00463e-310
2.67686e-311
1.1645e-310
1.86709e-310
2.27201e-310
1.21488e-310
6.71011e-311
6.02484e-311
-6.74482e-312
-7.5784e-311
-1.3497e-310
-1.57143e-310
-9.81158e-311
-5.33681e-311
-5.30819e-311
-2.55597e-311
4.25951e-311
8.11303e-311
6.08407e-311
1.27196e-311
-3.71722e-311
-9.41649e-311
-9.67181e-311
-9.81147e-311
-6.83542e-311
-3.01758e-311
-2.26628e-311
-3.58807e-313
2.12238e-311
3.33334e-311
7.50817e-311
1.05008e-310
4.61002e-311
3.33232e-311
7.97589e-312
-3.89996e-311
-1.87762e-311
-2.81475e-311
-8.20577e-311
-1.67512e-311
5.05602e-311
8.25472e-311
3.06553e-312
7.4786e-312
5.95989e-313
-2.97734e-311
-6.9792e-311
-4.47285e-312
-1.15544e-311
-6.26317e-311
-8.47624e-311
-6.32382e-311
-1.8958e-311
-3.8303e-311
-2.16301e-311
-1.11762e-311
-1.61464e-311
-1.48966e-311
4.43377e-311
8.25339e-311
6.2942e-311
3.80984e-311
-1.32796e-311
-4.40001e-311
-7.32968e-313
6.9167e-311
1.26552e-310
1.50691e-310
2.32089e-310
2.31516e-310
1.5982e-310
1.52423e-310
2.20244e-310
2.17756e-310
1.51618e-310
1.90114e-310
2.76508e-310
-2.27715e-310
-2.40699e-310
-1.97261e-310
-1.07661e-310
-1.6257e-311
8.39869e-312
1.40809e-310
1.36894e-310
1.91412e-310
1.77665e-310
5.96703e-311
2.96922e-311
-3.3492e-311
-5.90158e-311
-2.40718e-311
-7.28678e-311
-1.084e-310
-8.21094e-311
-2.63103e-311
5.29587e-311
1.15424e-310
8.33225e-311
2.38691e-311
-3.39436e-311
-4.78109e-311
-5.97365e-311
-3.69327e-311
-4.53817e-311
-2.70263e-311
-1.05357e-311
2.05753e-311
8.93029e-311
7.85243e-311
3.82242e-311
4.95288e-311
4.28208e-311
-4.2528e-312
-4.8305e-312
-4.19226e-311
-4.79462e-311
-2.02146e-311
-8.56633e-311
-1.34922e-311
1.20525e-310
4.49564e-311
-3.9193e-311
1.45279e-311
5.53238e-311
-6.07301e-311
-8.17939e-311
-4.94039e-311
-1.06052e-310
-8.52184e-311
-7.20595e-311
-3.70848e-312
3.30014e-311
4.56898e-311
-5.74788e-312
-7.1277e-311
-6.94006e-311
-6.8544e-311
4.63033e-312
3.15416e-311
2.30716e-311
4.94008e-312
-7.24765e-311
-1.47243e-310
-4.53223e-311
3.04396e-311
1.02027e-310
1.36935e-310
2.45926e-310
3.16507e-310
3.06332e-310
2.53373e-310
2.33016e-310
1.66638e-310
9.47462e-311
6.80121e-311
1.51978e-310
-2.26116e-310
-1.63794e-310
-1.20822e-310
-9.26013e-311
-8.09462e-311
-1.20659e-310
-1.64753e-311
9.10556e-311
1.82322e-310
1.9333e-310
8.09281e-311
5.66578e-311
4.12717e-311
9.74296e-311
6.71615e-311
-1.70543e-311
-1.09266e-310
-1.39668e-310
-2.04637e-311
7.41113e-311
1.44564e-310
8.83248e-311
7.51793e-312
-3.8284e-311
-1.80128e-311
-6.76763e-312
-8.97994e-312
-2.89337e-311
-5.69445e-311
-5.96191e-311
-1.13136e-311
1.04426e-310
8.27921e-311
6.29879e-311
6.23571e-311
3.62713e-311
-5.08451e-311
-4.10996e-311
-2.96062e-311
-3.9994e-311
-2.44736e-311
-8.5046e-311
-2.80029e-311
1.07315e-310
9.05813e-311
-1.40502e-312
3.93796e-311
3.98544e-311
-1.06198e-310
-1.05081e-310
-9.27171e-311
-7.59397e-311
-9.83572e-311
-1.00244e-310
-5.03879e-311
-4.06232e-312
4.8005e-311
1.74887e-311
-7.70753e-311
-7.6195e-311
-5.20643e-311
8.73942e-312
6.83645e-311
2.21484e-311
-5.34864e-311
-1.54292e-310
-1.99099e-310
-1.18526e-310
-6.0996e-311
6.41201e-311
1.28355e-310
3.03514e-310
2.97379e-310
2.20509e-310
1.57104e-310
3.99114e-311
7.27862e-311
1.07398e-310
1.05142e-310
1.17487e-310
-1.17427e-310
-1.70692e-310
-1.45802e-310
-1.31992e-310
-1.36825e-310
-5.20461e-311
1.25108e-311
6.69746e-311
3.04474e-311
6.47636e-311
6.61863e-311
6.22448e-311
8.7237e-311
1.04624e-310
8.5373e-311
2.90952e-311
-5.72285e-311
-6.20248e-311
-1.1264e-311
5.70318e-311
8.86019e-311
5.40079e-311
5.9823e-311
1.41273e-311
-1.88464e-311
-3.26626e-311
-5.78555e-311
-4.96794e-311
-9.68701e-311
-1.09605e-310
-4.13862e-311
3.41364e-311
9.10441e-311
1.22314e-310
7.05986e-311
-2.36246e-311
-3.83115e-311
-1.09632e-311
-4.82802e-311
-3.23543e-311
-5.62772e-311
-8.08825e-311
-2.38798e-311
1.88903e-311
4.18317e-311
1.82088e-311
5.59716e-311
1.47425e-312
-1.02802e-310
-5.4074e-311
-5.36409e-311
-5.49958e-311
-6.98647e-311
-6.93786e-311
-6.52173e-311
-3.66441e-311
-4.02045e-312
1.46617e-311
-3.90214e-311
-5.39171e-311
3.35356e-311
4.25038e-311
3.49745e-311
5.37848e-311
1.11105e-311
-1.67831e-310
-2.11356e-310
-1.29275e-310
-4.58314e-311
1.0513e-310
1.76704e-310
2.30749e-310
2.03177e-310
9.73696e-311
5.87173e-312
-1.24498e-310
-5.01006e-311
-1.59643e-311
1.88893e-312
-1.98173e-311
-1.23358e-310
-1.22189e-310
-1.53002e-310
-2.03815e-310
-1.0207e-310
-3.46409e-311
-2.90102e-311
3.67263e-311
-1.50694e-311
2.33348e-311
2.72369e-311
3.9881e-311
7.98937e-311
4.69115e-311
7.09876e-311
4.87945e-311
1.88857e-311
-2.06124e-311
-8.15073e-311
4.21197e-311
9.28237e-311
1.02517e-310
1.04917e-310
2.22784e-311
-4.48687e-311
-1.62473e-311
-9.05554e-311
-1.10209e-310
-1.14203e-310
-6.65271e-311
-5.80022e-311
-2.69888e-312
1.10519e-310
6.98084e-311
7.08572e-312
-2.84745e-311
-3.05734e-311
-3.80046e-311
-5.87031e-311
-2.37898e-311
-7.07567e-311
-1.59381e-310
-7.63921e-311
-3.58725e-311
-2.00966e-311
3.50676e-311
1.1829e-310
2.88146e-312
-8.27977e-311
-8.67131e-311
-1.65862e-311
-5.67572e-311
-9.08209e-311
-6.9352e-311
-4.35689e-311
-1.38069e-311
4.20877e-312
-3.24848e-311
-4.68297e-311
-6.36816e-311
2.14617e-311
2.86223e-311
-1.14179e-311
1.7078e-311
-2.55284e-311
-1.12484e-310
-1.39782e-310
-1.08448e-310
-1.07922e-311
7.27833e-311
1.39306e-310
1.9244e-310
1.5744e-310
1.24653e-310
1.19761e-310
-8.8417e-312
-4.46071e-311
-6.37782e-311
-3.84577e-311
-9.73305e-312
-1.41161e-310
-1.38409e-310
-2.1551e-310
-2.57283e-310
-1.77693e-310
-1.15184e-310
-9.83002e-311
-1.28036e-311
7.0024e-311
5.5162e-312
4.79182e-311
1.04348e-310
9.3905e-311
7.19753e-311
5.66617e-311
4.09439e-311
6.63912e-311
-4.22171e-311
-8.91125e-311
5.36609e-311
1.57486e-310
1.52988e-310
6.96192e-311
5.23728e-311
-3.82614e-311
-4.49959e-311
-7.15767e-311
-1.37192e-310
-1.20745e-310
-7.73357e-311
-8.76918e-311
-7.63441e-312
6.81065e-311
-9.24295e-312
4.9103e-313
-5.65816e-312
-4.9703e-311
-8.06766e-311
-7.47592e-311
-6.20125e-311
-6.20661e-311
-1.87244e-310
-9.72845e-311
-2.00433e-311
5.79719e-312
9.24068e-311
9.48882e-311
-1.23863e-311
-8.04244e-311
-6.25e-311
-5.85019e-311
-7.29123e-311
-1.51421e-310
-6.70229e-311
-4.90674e-311
-2.01147e-311
3.37229e-312
-7.82726e-311
-6.31603e-311
-1.54895e-311
9.23191e-312
-5.64466e-312
-3.78033e-311
-2.72595e-311
-7.53231e-311
-1.08334e-310
-1.16595e-310
-1.03238e-310
-5.72134e-311
5.56847e-311
1.28584e-310
2.20603e-310
2.28094e-310
1.52392e-310
1.13965e-310
2.6533e-311
-6.09693e-311
-1.98595e-310
-1.12451e-310
-2.20794e-310
-2.71981e-310
-2.19197e-310
-1.84114e-310
-2.16345e-310
-1.61478e-310
-5.39363e-311
-7.79812e-311
5.24942e-311
1.16416e-310
5.83341e-311
8.40675e-311
1.56702e-310
8.10042e-311
6.07376e-311
-1.31296e-311
2.13138e-312
4.71421e-312
-4.66542e-311
-7.76679e-311
2.65562e-311
1.15079e-310
1.42097e-310
8.97708e-311
9.9617e-311
3.6309e-311
-3.54709e-311
-8.45718e-312
-1.15417e-310
-1.20335e-310
-1.02632e-310
-7.383e-311
-4.23503e-312
8.55472e-311
3.16393e-311
4.98779e-311
1.5005e-311
-2.48676e-311
-9.06244e-311
-7.72932e-311
-1.00022e-310
-5.97507e-311
-1.28342e-310
-6.26566e-311
6.33523e-312
3.99235e-311
1.04899e-310
8.55823e-311
1.92155e-311
-7.01411e-311
-2.42454e-311
-3.8929e-311
-1.1915e-310
-1.60795e-310
-7.23558e-311
-4.27785e-311
-8.33672e-311
-6.01149e-311
-1.16788e-310
-3.19847e-311
3.82898e-311
3.94692e-311
-4.05185e-312
7.49354e-312
2.2902e-311
-2.77882e-311
-1.09126e-310
-2.08504e-310
-1.31842e-310
-7.22679e-311
4.3583e-311
1.34775e-310
1.49563e-310
1.77884e-310
1.71481e-310
1.73242e-310
1.57719e-310
8.47763e-311
-2.03696e-311
-1.28165e-310
-2.39899e-310
-2.91671e-310
-2.50742e-310
-2.55064e-310
-1.69655e-310
-9.975e-311
-5.19019e-311
-1.25098e-311
7.58446e-311
3.1419e-311
9.5976e-311
1.29223e-310
1.78019e-310
1.01334e-310
7.0152e-311
-4.93164e-311
1.37772e-311
-1.81623e-311
-2.90264e-311
-4.44046e-311
1.30194e-311
9.52597e-311
1.15608e-310
1.00753e-310
8.96361e-311
8.49351e-311
1.04037e-311
-1.09984e-311
-7.43261e-311
-7.63376e-311
-1.03614e-310
-9.79265e-311
-4.15731e-311
6.54455e-311
9.86753e-311
5.46106e-311
3.16913e-311
1.25291e-311
-6.68852e-311
-8.37365e-311
-1.21377e-310
-1.25483e-310
-1.25005e-310
-5.04027e-311
5.43966e-311
5.42544e-311
6.54719e-311
1.31774e-310
2.88025e-311
-9.07863e-311
-2.84911e-311
-5.91929e-311
-1.62029e-310
-9.55583e-311
-6.9033e-311
-2.91934e-311
-9.02414e-311
-9.23513e-311
-1.04216e-310
-2.59397e-311
3.56359e-311
9.81042e-311
3.86171e-311
6.60882e-311
8.44929e-311
2.54434e-313
-1.02658e-310
-2.5219e-310
-1.85509e-310
-1.0621e-310
-1.40429e-311
5.3126e-311
6.33724e-311
1.23329e-310
1.71198e-310
2.33669e-310
1.87552e-310
1.38605e-310
5.34205e-312
-1.22664e-311
6.16387e-311
-1.09399e-310
-6.11968e-311
-2.7832e-311
9.31752e-312
1.75203e-311
4.44767e-311
5.32014e-311
4.87903e-311
-3.88125e-311
3.9404e-311
1.64962e-310
2.22385e-310
1.48729e-310
6.8181e-311
-1.41976e-311
-6.81461e-312
-4.54024e-311
-1.99466e-311
-1.66263e-311
-8.6357e-312
3.93145e-311
1.07556e-310
1.37701e-310
8.51852e-311
7.22431e-311
1.76438e-311
-2.2893e-311
-2.61281e-311
-4.52442e-311
-1.06788e-310
-8.85743e-311
-6.31014e-311
2.19751e-311
7.30408e-311
3.46593e-311
2.46734e-311
4.82362e-312
-6.36142e-311
-8.94136e-311
-1.12493e-310
-1.40028e-310
-1.19197e-310
-5.18949e-311
1.37805e-311
2.06001e-311
4.40733e-311
7.75501e-311
1.59961e-311
-8.15911e-311
-4.19469e-311
-7.82867e-311
-1.18551e-310
-1.85723e-311
-1.52912e-311
-3.08425e-311
-5.54673e-311
-9.44418e-311
-5.59524e-311
2.02595e-311
7.38808e-311
6.28102e-311
-4.35983e-312
2.03424e-311
5.96257e-311
-9.59003e-311
-1.1427e-310
-2.56636e-310
-2.32116e-310
-1.74581e-310
-7.39087e-311
-1.73848e-311
8.67485e-312
4.36733e-311
7.34058e-311
1.34425e-310
1.6889e-310
-1.02445e-311
-4.5791e-311
-6.25917e-312
7.62012e-311
1.02204e-310
4.82382e-311
1.52453e-310
9.35168e-311
6.67282e-311
8.84848e-312
1.49526e-311
-4.76002e-311
-1.26873e-310
-9.42742e-312
1.15661e-310
1.90378e-310
1.7477e-310
1.09212e-310
5.25493e-311
-5.26021e-311
-8.65872e-311
-7.73305e-311
-5.69761e-311
-6.68933e-311
-8.32807e-312
1.07631e-310
1.42046e-310
1.08457e-310
1.23387e-310
3.70714e-311
-6.01096e-311
-7.46301e-311
-8.0315e-311
-5.73129e-311
-5.40542e-311
-2.29469e-311
3.63628e-311
4.75138e-311
6.81334e-311
2.70716e-311
-2.05425e-311
-5.31085e-311
-1.27111e-310
-1.26409e-310
-1.45353e-310
-1.23461e-310
-6.29024e-311
5.096e-312
4.70782e-311
6.07794e-311
2.92964e-311
3.19203e-311
-4.00239e-311
-4.40637e-311
-9.59789e-312
-3.63517e-311
-2.34819e-311
-1.40713e-311
-6.77509e-311
-7.99197e-311
-8.22777e-311
-1.26227e-311
1.25524e-311
1.74319e-311
-6.05523e-311
-6.28664e-311
-5.96339e-312
5.0645e-311
-1.16648e-310
-2.44253e-310
-2.8286e-310
-3.05328e-310
-2.71683e-310
-2.01473e-310
-1.31131e-310
-1.07732e-310
-7.09403e-311
1.48066e-311
6.40939e-311
1.20388e-310
4.94562e-311
7.47103e-312
1.65098e-310
2.43125e-310
1.64967e-311
3.3402e-311
1.18532e-310
5.45375e-311
1.14377e-312
-6.79493e-311
-7.0952e-311
-9.01207e-311
-1.44321e-310
-5.33072e-311
2.22965e-311
1.14592e-310
1.665e-310
1.40695e-310
7.74787e-311
-5.49298e-311
-7.36493e-311
-9.08615e-311
-7.76874e-311
-8.31675e-311
-7.87002e-312
7.98937e-311
1.33889e-310
1.53563e-310
1.407e-310
6.19518e-311
-3.44552e-311
-9.20946e-311
-6.89493e-311
-7.77542e-312
-4.18098e-311
4.64785e-311
2.67931e-311
6.52848e-311
5.67642e-311
1.45173e-311
2.93788e-312
-2.1649e-311
-9.86157e-311
-1.05411e-310
-1.50461e-310
-1.40849e-310
-4.96169e-311
-2.2956e-311
5.86081e-312
7.17055e-311
7.42229e-311
4.95769e-311
1.25372e-311
9.65035e-312
1.63854e-312
-6.81651e-312
-1.74845e-311
1.90463e-311
-4.96685e-311
-7.33827e-311
-3.45719e-311
3.58872e-311
1.17772e-311
-2.79423e-312
-7.25047e-311
8.7893e-312
-3.63327e-312
-5.99015e-312
-1.13915e-310
-2.74703e-310
-2.79906e-310
-3.16969e-310
-2.84559e-310
-3.07507e-310
-2.52453e-310
-1.55816e-310
-5.66002e-311
3.72302e-311
1.12695e-310
1.77484e-310
1.16161e-310
1.16996e-310
3.71359e-310
4.42478e-310
-1.05757e-310
7.70438e-311
1.17004e-310
1.41293e-312
-1.02678e-310
-6.47077e-311
-5.5445e-311
-1.00727e-310
-7.14872e-311
-7.38763e-311
3.64206e-311
1.10943e-310
1.41146e-310
7.42335e-311
-2.39618e-311
-1.0104e-310
-1.42629e-310
-7.65918e-311
-1.28788e-310
-3.65671e-311
3.60137e-311
8.74694e-311
1.34734e-310
1.22007e-310
1.28525e-310
6.60813e-311
4.00989e-311
-6.58101e-312
-2.04697e-311
-2.45132e-311
1.65923e-311
4.55898e-311
1.78147e-311
2.89184e-311
2.59493e-312
-1.59387e-311
-1.13905e-311
-4.16439e-311
-8.86817e-311
-9.45009e-311
-1.26797e-310
-7.21253e-311
-5.87773e-311
-8.23834e-311
-7.43285e-311
4.67956e-311
9.83794e-311
8.38029e-311
3.28204e-311
5.31458e-311
5.10461e-311
1.50424e-311
2.17675e-312
-2.03536e-311
-8.77948e-311
-8.37715e-311
-6.86719e-311
-5.77947e-312
3.42508e-311
4.20516e-311
1.02933e-311
3.98752e-311
9.43308e-312
-4.20547e-311
-9.90427e-311
-2.18629e-310
-2.92114e-310
-3.09883e-310
-2.76666e-310
-3.07e-310
-2.87337e-310
-2.11843e-310
-1.08958e-310
-5.50612e-312
4.20976e-311
1.26375e-310
1.93585e-310
3.35885e-310
5.19422e-310
5.86639e-310
-1.59973e-310
-1.70183e-310
-7.76057e-311
-8.66031e-311
-1.90109e-310
-2.12306e-310
-1.39274e-310
-1.7261e-310
-2.20803e-311
-8.4351e-312
6.98604e-311
1.46524e-310
1.29581e-310
4.76936e-311
-3.46322e-311
-4.05229e-311
-8.10705e-311
-8.93808e-311
-1.78995e-310
-7.07068e-311
1.40005e-311
8.42335e-311
6.54381e-311
9.42696e-311
1.46911e-310
1.04057e-310
5.4713e-311
-9.19359e-312
-2.13016e-311
-5.1416e-311
2.1936e-311
1.07043e-311
1.19163e-311
3.79082e-311
2.67976e-311
3.82848e-311
7.11587e-313
-7.76086e-311
-7.75843e-311
-1.19743e-310
-8.62427e-311
-3.3413e-311
-7.33639e-311
-7.17531e-311
-6.257e-311
2.68828e-311
7.26356e-311
6.68332e-311
2.96474e-311
4.83654e-311
9.14762e-311
2.77659e-312
-9.42016e-311
-6.65558e-311
-1.39518e-310
-1.14094e-310
-1.14632e-310
-5.26577e-311
7.04224e-311
7.01301e-311
6.72324e-311
-1.90155e-311
5.80738e-311
3.06486e-311
-5.18568e-311
-1.4555e-310
-2.43036e-310
-2.34873e-310
-2.54287e-310
-2.9133e-310
-3.04894e-310
-3.38292e-310
-2.26989e-310
-8.06954e-311
-3.96022e-311
3.4484e-311
2.64336e-310
4.81788e-310
6.86849e-310
7.11487e-310
-2.07868e-310
-2.1671e-310
-1.89628e-310
-1.19268e-310
-1.61495e-310
-2.27136e-310
-9.50324e-311
-3.50525e-312
5.47562e-311
4.37321e-311
1.07183e-310
1.28046e-310
1.09536e-310
7.09539e-311
-1.09239e-311
-3.08759e-311
-3.42678e-311
-8.32525e-311
-1.24246e-310
-7.55006e-311
7.37916e-312
9.42421e-311
6.19605e-311
1.21263e-310
1.34845e-310
1.28549e-310
7.91475e-311
-1.3721e-311
-4.18073e-312
-4.01323e-311
-3.02875e-311
3.98706e-312
-1.11027e-311
1.98703e-311
3.04714e-311
4.88223e-311
2.94341e-311
-4.81684e-311
-3.87754e-311
-1.51464e-310
-8.75712e-311
-7.74955e-311
-7.33464e-311
-2.90988e-311
-2.7265e-311
6.93252e-312
5.0764e-311
4.99848e-311
4.82087e-311
3.40018e-311
8.92993e-311
6.80457e-312
-5.74109e-311
-4.37133e-311
-4.69653e-311
-1.28582e-310
-1.31895e-310
-1.66528e-311
4.9023e-311
6.952e-311
2.77353e-311
-4.899e-311
6.80579e-311
8.29913e-311
-1.51875e-312
-1.01484e-310
-1.76194e-310
-2.3818e-310
-2.34492e-310
-2.45792e-310
-3.64103e-310
-3.68193e-310
-2.89881e-310
-2.67836e-310
-1.90403e-310
5.37339e-312
2.22877e-310
3.59898e-310
3.54754e-310
1.9924e-310
-2.52901e-310
-1.15633e-310
-1.71572e-310
-8.5983e-311
-6.13659e-311
-3.60599e-311
5.8452e-311
9.09825e-311
6.0608e-311
1.1318e-310
1.01846e-310
8.06681e-311
1.18987e-310
1.13464e-310
1.76491e-311
-2.39445e-311
-9.76988e-311
-1.23115e-310
-1.17264e-310
-8.90929e-311
-2.02331e-312
3.98984e-311
1.2874e-310
1.61373e-310
1.4991e-310
1.25506e-310
8.9719e-311
5.08294e-311
7.42414e-311
2.66364e-311
-2.065e-311
-6.28928e-312
3.14342e-311
1.81079e-311
2.33001e-311
-2.58322e-313
2.37206e-311
-2.75731e-311
-4.18864e-311
-9.43229e-311
-4.49048e-311
-6.31214e-311
-4.50895e-311
-2.14593e-311
-3.41858e-311
1.71597e-311
6.75413e-311
4.92725e-311
5.62713e-311
5.89807e-312
4.4679e-311
5.54654e-311
-6.31078e-312
-5.70754e-311
-2.82636e-311
-9.90431e-311
-1.1836e-310
-3.92712e-311
-1.23098e-311
2.87737e-311
4.05693e-311
-8.10266e-311
-2.70391e-313
1.1048e-310
6.3898e-311
-4.9829e-311
-1.21896e-310
-2.51685e-310
-2.16256e-310
-2.71036e-310
-3.69235e-310
-4.41014e-310
-4.40364e-310
-4.39244e-310
-3.92345e-310
-1.66502e-310
-3.51793e-311
-3.85197e-311
4.2192e-311
4.2306e-312
8.84785e-311
5.27101e-311
6.04686e-312
-3.26465e-311
-5.28424e-311
1.99837e-311
5.03778e-311
2.72329e-311
5.2296e-311
5.92633e-311
6.65335e-311
3.44492e-312
6.59163e-311
3.98112e-311
4.75546e-312
1.49911e-311
-2.32856e-312
-8.08149e-311
-1.21615e-310
-1.53384e-310
-8.92193e-311
4.2947e-312
1.54126e-310
1.82025e-310
1.7274e-310
1.74046e-310
1.25274e-310
8.27126e-311
8.604e-311
2.55451e-311
-3.84996e-311