/*--------------------------------*- C++ -*----------------------------------*\
  =========                 |
  \\      /  F ield         | OpenFOAM: The Open Source CFD Toolbox
   \\    /   O peration     | Website:  https://openfoam.org
    \\  /    A nd           | Version:  11
     \\/     M anipulation  |
\*---------------------------------------------------------------------------*/
FoamFile
{
    format      ascii;
    class       volScalarField;
    location    "20";
    object      C;
}
// * * * * * * * * * * * * * * * * * * * * * * * * * * * * * * * * * * * * * //

dimensions      [0 0 0 1 0 0 0];

internalField   nonuniform List<scalar> 
427520
(
9.08536e-221
7.93543e-221
6.33385e-221
4.71769e-221
3.31959e-221
2.22406e-221
1.42659e-221
8.79642e-222
5.23058e-222
3.00706e-222
1.67499e-222
9.05627e-223
4.76044e-223
2.43624e-223
1.21541e-223
5.91795e-224
2.81537e-224
1.30999e-224
5.96754e-225
2.664e-225
1.16653e-225
5.01509e-226
2.1188e-226
8.80511e-227
3.60271e-227
1.45278e-227
5.77962e-228
2.27089e-228
8.82232e-229
3.393e-229
1.29347e-229
4.89448e-230
1.84107e-230
6.89507e-231
2.57532e-231
9.61011e-232
3.58944e-232
1.34451e-232
5.06041e-233
1.9175e-233
7.32904e-234
2.83087e-234
1.10688e-234
4.38819e-235
1.7665e-235
7.23034e-236
3.01257e-236
1.27916e-236
5.54086e-237
2.45088e-237
1.10813e-237
5.12652e-238
2.42944e-238
1.18119e-238
5.91242e-239
3.08293e-239
1.75216e-239
1.25071e-239
1.3961e-239
2.39671e-239
4.99422e-239
1.09048e-238
2.37589e-238
5.09327e-238
1.06947e-237
2.19517e-237
4.39833e-237
8.59163e-237
1.63404e-236
3.02151e-236
5.42335e-236
9.43184e-236
1.58592e-235
2.57163e-235
4.00862e-235
5.98238e-235
8.50085e-235
1.14118e-234
1.42972e-234
1.63639e-234
3.31808e-220
3.00077e-220
2.51388e-220
1.97738e-220
1.47362e-220
1.04709e-220
7.12753e-221
4.66494e-221
2.94439e-221
1.79662e-221
1.06204e-221
6.09303e-222
3.39809e-222
1.84489e-222
9.76362e-223
5.04292e-223
2.54492e-223
1.25617e-223
6.07086e-224
2.8754e-224
1.336e-224
6.09497e-225
2.73271e-225
1.2052e-225
5.2331e-226
2.23915e-226
9.44987e-227
3.93722e-227
1.62099e-227
6.60109e-228
2.66148e-228
1.06353e-228
4.21649e-229
1.66037e-229
6.50142e-230
2.53441e-230
9.84799e-231
3.8193e-231
1.48037e-231
5.7426e-232
2.2327e-232
8.71336e-233
3.4185e-233
1.3504e-233
5.37976e-234
2.16487e-234
8.81398e-235
3.63651e-235
1.5229e-235
6.48367e-236
2.81076e-236
1.24268e-236
5.61218e-237
2.59394e-237
1.23096e-237
6.05386e-238
3.19319e-238
2.02382e-238
1.91351e-238
2.8603e-238
5.44967e-238
1.11176e-237
2.27794e-237
4.60076e-237
9.10633e-237
1.76213e-236
3.32855e-236
6.12935e-236
1.09883e-235
1.91498e-235
3.23909e-235
5.30774e-235
8.40845e-235
1.28461e-234
1.88705e-234
2.65555e-234
3.56316e-234
4.52973e-234
5.40711e-234
5.97774e-234
7.14218e-220
6.53359e-220
5.57546e-220
4.48911e-220
3.43674e-220
2.51551e-220
1.76759e-220
1.19622e-220
7.81718e-221
4.94355e-221
3.03102e-221
1.80471e-221
1.04502e-221
5.89266e-222
3.23964e-222
1.73847e-222
9.11562e-223
4.67508e-223
2.34745e-223
1.15508e-223
5.57482e-224
2.64142e-224
1.22974e-224
5.63033e-225
2.53729e-225
1.1264e-225
4.9304e-226
2.12967e-226
9.08585e-227
3.83203e-227
1.59918e-227
6.60958e-228
2.70816e-228
1.10109e-228
4.44695e-229
1.78585e-229
7.139e-230
2.84401e-230
1.13039e-230
4.48803e-231
1.78218e-231
7.08735e-232
2.82637e-232
1.13186e-232
4.55821e-233
1.84872e-233
7.56264e-234
3.12514e-234
1.30659e-234
5.53572e-235
2.38053e-235
1.04075e-235
4.63373e-236
2.10496e-236
9.78303e-237
4.68216e-237
2.35931e-237
1.35138e-237
1.05837e-237
1.31517e-237
2.25426e-237
4.33226e-237
8.49105e-237
1.64768e-236
3.13738e-236
5.84295e-236
1.06249e-235
1.88394e-235
3.25317e-235
5.46335e-235
8.91026e-235
1.40893e-234
2.156e-234
3.18579e-234
4.53383e-234
6.19431e-234
8.09121e-234
1.00495e-233
1.17773e-233
1.28728e-233
1.36156e-219
1.25195e-219
1.07784e-219
8.78216e-220
6.82233e-220
5.07945e-220
3.63866e-220
2.51543e-220
1.68217e-220
1.09036e-220
6.86176e-221
4.19848e-221
2.50089e-221
1.45193e-221
8.22442e-222
4.54996e-222
2.46071e-222
1.30214e-222
6.74805e-223
3.42761e-223
1.70789e-223
8.35487e-224
4.01594e-224
1.89826e-224
8.83063e-225
4.04623e-225
1.82762e-225
8.1443e-226
3.58357e-226
1.55825e-226
6.70172e-227
2.85328e-227
1.20364e-227
5.03546e-228
2.09111e-228
8.62839e-229
3.54099e-229
1.44679e-229
5.89161e-230
2.39375e-230
9.71478e-231
3.94279e-231
1.60219e-231
6.52689e-232
2.66899e-232
1.09702e-232
4.53842e-233
1.89251e-233
7.96619e-234
3.38995e-234
1.46062e-234
6.38225e-235
2.83279e-235
1.2795e-235
5.8946e-236
2.78236e-236
1.36388e-236
7.27348e-237
4.81944e-237
4.8046e-237
7.1075e-237
1.26831e-236
2.37757e-236
4.45437e-236
8.21396e-236
1.48337e-235
2.61783e-235
4.50852e-235
7.56851e-235
1.23695e-234
1.96559e-234
3.03256e-234
4.53495e-234
6.56034e-234
9.15856e-234
1.23018e-233
1.58367e-233
1.94375e-233
2.25794e-233
2.45543e-233
2.48264e-219
2.28849e-219
1.97899e-219
1.62254e-219
1.27054e-219
9.552e-220
6.92155e-220
4.84859e-220
3.29123e-220
2.16899e-220
1.38995e-220
8.67293e-221
5.27541e-221
3.13126e-221
1.81534e-221
1.02885e-221
5.70492e-222
3.09739e-222
1.64787e-222
8.59706e-223
4.40152e-223
2.21309e-223
1.09361e-223
5.31503e-224
2.54248e-224
1.19796e-224
5.56397e-225
2.5493e-225
1.15316e-225
5.15384e-226
2.27769e-226
9.96179e-227
4.3154e-227
1.85318e-227
7.896e-228
3.34103e-228
1.4052e-228
5.8802e-229
2.45058e-229
1.01814e-229
4.22142e-230
1.7486e-230
7.24417e-231
3.00505e-231
1.24968e-231
5.21636e-232
2.18831e-232
9.2384e-233
3.93029e-233
1.68735e-233
7.321e-234
3.21496e-234
1.43121e-234
6.46965e-235
2.97566e-235
1.3971e-235
6.75151e-236
3.44997e-236
2.02776e-236
1.6309e-236
1.99288e-236
3.21242e-236
5.72002e-236
1.03637e-235
1.85947e-235
3.27549e-235
5.64676e-235
9.51189e-235
1.56376e-234
2.50625e-234
3.91126e-234
5.93553e-234
8.74507e-234
1.24853e-233
1.7232e-233
2.29232e-233
2.92768e-233
3.57115e-233
4.13008e-233
4.4802e-233
4.44078e-219
4.09865e-219
3.55248e-219
2.92225e-219
2.29826e-219
1.73735e-219
1.26739e-219
8.94955e-220
6.13223e-220
4.08513e-220
2.65007e-220
1.67627e-220
1.03503e-220
6.24459e-221
3.68442e-221
2.12757e-221
1.20326e-221
6.66945e-222
3.62545e-222
1.93398e-222
1.01307e-222
5.21439e-223
2.63889e-223
1.31394e-223
6.44107e-224
3.11071e-224
1.48108e-224
6.95697e-225
3.22624e-225
1.47817e-225
6.69622e-226
3.00154e-226
1.33232e-226
5.86099e-227
2.55734e-227
1.10772e-227
4.76724e-228
2.04029e-228
8.69167e-229
3.68901e-229
1.56148e-229
6.59813e-230
2.78622e-230
1.17702e-230
4.97986e-231
2.11256e-231
8.99665e-232
3.85094e-232
1.65891e-232
7.20156e-233
3.15482e-233
1.39664e-233
6.25756e-234
2.84198e-234
1.31073e-234
6.1543e-235
2.95749e-235
1.47757e-235
8.06707e-236
5.46575e-236
5.39472e-236
7.56532e-236
1.25962e-235
2.20216e-235
3.85534e-235
6.65507e-235
1.12677e-234
1.86703e-234
3.02363e-234
4.7805e-234
7.37014e-234
1.10649e-233
1.61509e-233
2.28754e-233
3.13624e-233
4.14935e-233
5.27654e-233
6.41518e-233
7.40234e-233
8.01986e-233
7.87249e-219
7.2707e-219
6.3094e-219
5.19923e-219
4.09878e-219
3.10796e-219
2.27602e-219
1.61486e-219
1.11288e-219
7.46457e-220
4.88116e-220
3.11603e-220
1.94419e-220
1.18674e-220
7.09281e-221
4.15381e-221
2.3852e-221
1.34376e-221
7.43166e-222
4.037e-222
2.15516e-222
1.13132e-222
5.84272e-223
2.97042e-223
1.48745e-223
7.34088e-224
3.57273e-224
1.71582e-224
8.13665e-225
3.81251e-225
1.76631e-225
8.0969e-226
3.67524e-226
1.65307e-226
7.37344e-227
3.26412e-227
1.43527e-227
6.27389e-228
2.72868e-228
1.18186e-228
5.10243e-229
2.19785e-229
9.45484e-230
4.06617e-230
1.75004e-230
7.54593e-231
3.26337e-231
1.41714e-231
6.18701e-232
2.71901e-232
1.20439e-232
5.38445e-233
2.433e-233
1.1128e-233
5.1604e-234
2.43135e-234
1.16816e-234
5.77755e-235
3.02828e-235
1.82684e-235
1.47851e-235
1.74231e-235
2.64493e-235
4.42738e-235
7.56522e-235
1.28379e-234
2.14357e-234
3.50948e-234
5.62406e-234
8.81047e-234
1.34754e-233
2.00937e-233
2.91625e-233
4.11095e-233
5.61454e-233
7.40559e-233
9.39513e-233
1.14026e-232
1.31415e-232
1.42286e-232
1.3895e-218
1.28372e-218
1.11471e-218
9.19438e-219
7.25775e-219
5.51274e-219
4.04599e-219
2.87868e-219
1.99071e-219
1.3409e-219
8.81289e-220
5.65991e-220
3.55629e-220
2.18839e-220
1.32e-220
7.81029e-221
4.53617e-221
2.58759e-221
1.45049e-221
7.99409e-222
4.33377e-222
2.31213e-222
1.21455e-222
6.2847e-223
3.20506e-223
1.61174e-223
7.99637e-224
3.91624e-224
1.89441e-224
9.05671e-225
4.2818e-225
2.00319e-225
9.28002e-226
4.25998e-226
1.93913e-226
8.75931e-227
3.9294e-227
1.75194e-227
7.76967e-228
3.43036e-228
1.50907e-228
6.62061e-229
2.89941e-229
1.26871e-229
5.55241e-230
2.43286e-230
1.06839e-230
4.70758e-231
2.08362e-231
9.27486e-232
4.1572e-232
1.8787e-232
8.57159e-233
3.95389e-233
1.84677e-233
8.75011e-234
4.21721e-234
2.08001e-234
1.06815e-234
6.00911e-235
4.16577e-235
4.07158e-235
5.46646e-235
8.6348e-235
1.43549e-234
2.39782e-234
3.9596e-234
6.42622e-234
1.02238e-233
1.5919e-233
2.42241e-233
3.59697e-233
5.20244e-233
7.31346e-233
9.96654e-233
1.31235e-232
1.66278e-232
2.01616e-232
2.32216e-232
2.51342e-232
2.44705e-218
2.26117e-218
1.96413e-218
1.6209e-218
1.2804e-218
9.73472e-219
7.15358e-219
5.09788e-219
3.53257e-219
2.38556e-219
1.57284e-219
1.01401e-219
6.40074e-220
3.96026e-220
2.40396e-220
1.43281e-220
8.39084e-221
4.831e-221
2.73599e-221
1.52493e-221
8.36825e-222
4.52332e-222
2.40936e-222
1.26517e-222
6.55221e-223
3.34818e-223
1.68893e-223
8.41408e-224
4.14203e-224
2.01587e-224
9.70493e-225
4.62442e-225
2.18233e-225
1.0206e-225
4.73313e-226
2.17819e-226
9.95422e-227
4.52065e-227
2.04178e-227
9.17857e-228
4.1101e-228
1.83489e-228
8.17387e-229
3.63664e-229
1.61747e-229
7.19875e-230
3.20924e-230
1.43459e-230
6.4373e-231
2.90283e-231
1.31703e-231
6.01941e-232
2.77495e-232
1.29206e-232
6.08499e-233
2.90337e-233
1.40661e-233
6.94825e-234
3.5372e-234
1.9145e-234
1.19469e-234
9.84599e-235
1.14072e-234
1.66593e-234
2.67446e-234
4.39325e-234
7.18483e-234
1.15833e-233
1.83357e-233
2.84356e-233
4.31319e-233
6.38807e-233
9.22045e-233
1.29411e-232
1.76138e-232
2.31712e-232
2.93376e-232
3.55546e-232
4.09369e-232
4.43006e-232
4.30455e-218
3.97797e-218
3.45604e-218
2.85289e-218
2.25446e-218
1.71495e-218
1.26113e-218
8.9955e-219
6.24087e-219
4.22091e-219
2.78828e-219
1.80193e-219
1.14079e-219
7.08355e-220
4.31827e-220
2.58677e-220
1.52376e-220
8.8321e-221
5.04016e-221
2.83317e-221
1.56944e-221
8.57111e-222
4.61662e-222
2.4534e-222
1.28688e-222
6.66498e-223
3.40977e-223
1.72385e-223
8.61609e-224
4.25952e-224
2.08382e-224
1.00934e-224
4.8431e-225
2.3034e-225
1.08651e-225
5.08615e-226
2.36439e-226
1.09225e-226
5.01772e-227
2.29399e-227
1.04451e-227
4.74042e-228
2.14616e-228
9.7011e-229
4.38211e-229
1.97992e-229
8.95643e-230
4.06045e-230
1.84679e-230
8.43595e-231
3.87446e-231
1.79125e-231
8.34644e-232
3.92468e-232
1.86491e-232
8.96855e-233
4.37339e-233
2.16914e-233
1.10201e-233
5.84792e-234
3.41953e-234
2.46392e-234
2.44567e-234
3.2304e-234
4.94968e-234
7.96772e-234
1.2904e-233
2.06878e-233
3.26262e-233
5.04616e-233
7.63852e-233
1.12953e-232
1.62837e-232
2.28334e-232
3.10559e-232
4.08328e-232
5.16792e-232
6.26131e-232
7.20785e-232
7.79933e-232
7.56742e-218
6.99368e-218
6.07668e-218
5.01694e-218
3.96544e-218
3.01738e-218
2.21977e-218
1.58418e-218
1.09983e-218
7.4452e-219
4.9239e-219
3.18676e-219
2.02126e-219
1.25795e-219
7.69028e-220
4.62233e-220
2.73382e-220
1.59212e-220
9.1356e-221
5.16761e-221
2.88296e-221
1.58696e-221
8.62275e-222
4.6263e-222
2.45179e-222
1.28396e-222
6.64641e-223
3.40215e-223
1.72272e-223
8.63277e-224
4.28294e-224
2.10469e-224
1.02495e-224
4.94879e-225
2.37038e-225
1.12695e-225
5.32131e-226
2.49709e-226
1.1653e-226
5.41159e-227
2.50271e-227
1.15351e-227
5.30264e-228
2.4332e-228
1.11544e-228
5.11299e-229
2.34565e-229
1.07801e-229
4.96805e-230
2.29824e-230
1.06837e-230
4.99628e-231
2.35332e-231
1.11779e-231
5.36105e-232
2.59995e-232
1.27714e-232
6.37002e-233
3.24198e-233
1.70527e-233
9.60278e-234
6.29334e-234
5.42161e-234
6.37151e-234
9.18284e-234
1.4398e-233
2.30552e-233
3.6761e-233
5.77975e-233
8.92185e-233
1.34869e-232
1.99239e-232
2.8702e-232
4.02245e-232
5.46876e-232
7.18824e-232
9.09565e-232
1.10183e-231
1.26827e-231
1.37227e-231
1.32991e-217
1.22912e-217
1.06802e-217
8.81841e-218
6.971e-218
5.30525e-218
3.90375e-218
2.78682e-218
1.93554e-218
1.31094e-218
8.67593e-219
5.6201e-219
3.56872e-219
2.22424e-219
1.36221e-219
8.20602e-220
4.86654e-220
2.84341e-220
1.63786e-220
9.30655e-221
5.21912e-221
2.89003e-221
1.58081e-221
8.54464e-222
4.56559e-222
2.41233e-222
1.26083e-222
6.52076e-223
3.33821e-223
1.69223e-223
8.49761e-224
4.22864e-224
2.08621e-224
1.02085e-224
4.95709e-225
2.38985e-225
1.14454e-225
5.4483e-226
2.57941e-226
1.2153e-226
5.70224e-227
2.66629e-227
1.24333e-227
5.78652e-228
2.68995e-228
1.25006e-228
5.81234e-229
2.70644e-229
1.26323e-229
5.91607e-230
2.78287e-230
1.31622e-230
6.26655e-231
3.00679e-231
1.45578e-231
7.12174e-232
3.52573e-232
1.77003e-232
9.04449e-233
4.74528e-233
2.61767e-233
1.61216e-233
1.23701e-233
1.28698e-233
1.71966e-233
2.60496e-233
4.11204e-233
6.51623e-233
1.02148e-232
1.57425e-232
2.37738e-232
3.50971e-232
5.05368e-232
7.08015e-232
9.62356e-232
1.26472e-231
1.60011e-231
1.93817e-231
2.23081e-231
2.41367e-231
2.33678e-217
2.15972e-217
1.87671e-217
1.54963e-217
1.22508e-217
9.32427e-218
6.86193e-218
4.89946e-218
3.40364e-218
2.30599e-218
1.52675e-218
9.89528e-219
6.2878e-219
3.92246e-219
2.40502e-219
1.45088e-219
8.61974e-220
5.04737e-220
2.91511e-220
1.66166e-220
9.35344e-221
5.20188e-221
2.85958e-221
1.55443e-221
8.35852e-222
4.44757e-222
2.34258e-222
1.22175e-222
6.31137e-223
3.23045e-223
1.63887e-223
8.24381e-224
4.11315e-224
2.03638e-224
1.00086e-224
4.88551e-225
2.36966e-225
1.14269e-225
5.48122e-226
2.61689e-226
1.24429e-226
5.89619e-227
2.7863e-227
1.31402e-227
6.18907e-228
2.91364e-228
1.37211e-228
6.46938e-229
3.05663e-229
1.44857e-229
6.89253e-230
3.29614e-230
1.58594e-230
7.6863e-231
3.75675e-231
1.85408e-231
9.2532e-232
4.67831e-232
2.4032e-232
1.26224e-232
6.89144e-233
4.08263e-233
2.87189e-233
2.66448e-233
3.26562e-233
4.73564e-233
7.33902e-233
1.15422e-232
1.80339e-232
2.77489e-232
4.187e-232
6.17811e-232
8.89307e-232
1.24563e-231
1.69284e-231
2.22447e-231
2.81415e-231
3.40853e-231
3.92303e-231
4.24452e-231
4.10547e-217
3.79445e-217
3.29728e-217
2.7227e-217
2.15254e-217
1.63843e-217
1.20585e-217
8.61069e-218
5.98262e-218
4.05401e-218
2.68472e-218
1.7406e-218
1.1065e-218
6.90639e-219
4.23761e-219
2.55876e-219
1.52194e-219
8.92473e-220
5.1637e-220
2.9498e-220
1.66478e-220
9.2874e-221
5.12407e-221
2.79712e-221
1.51131e-221
8.08545e-222
4.28456e-222
2.24957e-222
1.17064e-222
6.0396e-223
3.09025e-223
1.56863e-223
7.90206e-224
3.95192e-224
1.96288e-224
9.68664e-225
4.75161e-225
2.31794e-225
1.12506e-225
5.43614e-226
2.61637e-226
1.25505e-226
6.00411e-227
2.86654e-227
1.36677e-227
6.51298e-228
3.1042e-228
1.48102e-228
7.07915e-229
3.39314e-229
1.63241e-229
7.89028e-230
3.83562e-230
1.8773e-230
9.26151e-231
4.61119e-231
2.32015e-231
1.18168e-231
6.10698e-232
3.21797e-232
1.7496e-232
1.01257e-232
6.69745e-233
5.62935e-233
6.30066e-233
8.67151e-233
1.31294e-232
2.04528e-232
3.18298e-232
4.88909e-232
7.37086e-232
1.08712e-231
1.56444e-231
2.19091e-231
2.97717e-231
3.91183e-231
4.94856e-231
5.99352e-231
6.89804e-231
7.46323e-231
7.21234e-217
6.666e-217
5.79266e-217
4.78332e-217
3.78176e-217
2.87862e-217
2.11869e-217
1.513e-217
1.0513e-217
7.12473e-218
4.71895e-218
3.06004e-218
1.94577e-218
1.21489e-218
7.45758e-219
4.50563e-219
2.6819e-219
1.57416e-219
9.11858e-220
5.21669e-220
2.94944e-220
1.649e-220
9.12153e-221
4.9945e-221
2.70821e-221
1.45482e-221
7.7452e-222
4.08788e-222
2.13966e-222
1.11098e-222
5.72428e-223
2.92765e-223
1.48676e-223
7.49946e-224
3.75872e-224
1.87256e-224
9.27653e-225
4.57173e-225
2.24242e-225
1.09524e-225
5.32942e-226
2.58508e-226
1.25068e-226
6.03902e-227
2.91221e-227
1.40352e-227
6.76501e-228
3.2637e-228
1.57723e-228
7.64177e-229
3.7153e-229
1.81428e-229
8.90749e-230
4.40147e-230
2.19134e-230
1.10052e-230
5.58248e-231
2.86451e-231
1.48998e-231
7.88643e-232
4.28586e-232
2.44735e-232
1.55209e-232
1.20459e-232
1.23422e-232
1.60145e-232
2.35705e-232
3.6284e-232
5.61928e-232
8.61341e-232
1.29735e-231
1.91256e-231
2.75163e-231
3.85296e-231
5.2352e-231
6.87834e-231
8.70091e-231
1.05379e-230
1.21281e-230
1.31216e-230
1.26697e-216
1.17101e-216
1.0176e-216
8.40297e-217
6.64361e-217
5.05713e-217
3.72221e-217
2.65821e-217
1.84714e-217
1.25189e-217
8.29242e-218
5.37792e-218
3.42015e-218
2.13589e-218
1.31147e-218
7.9263e-219
4.72019e-219
2.77222e-219
1.60708e-219
9.20297e-220
5.20953e-220
2.91693e-220
1.61645e-220
8.87018e-221
4.82219e-221
2.59828e-221
1.38813e-221
7.35582e-222
3.8676e-222
2.01837e-222
1.04578e-222
5.38147e-223
2.75113e-223
1.39769e-223
7.05895e-224
3.54528e-224
1.77134e-224
8.8077e-225
4.36029e-225
2.15008e-225
1.05654e-225
5.17647e-226
2.53008e-226
1.23435e-226
6.01466e-227
2.92914e-227
1.42667e-227
6.95463e-228
3.39569e-228
1.66203e-228
8.16154e-229
4.02458e-229
1.99478e-229
9.94785e-230
4.99667e-230
2.53069e-230
1.29401e-230
6.6894e-231
3.50271e-231
1.86365e-231
1.01461e-231
5.75279e-232
3.54765e-232
2.58924e-232
2.44747e-232
2.98341e-232
4.24883e-232
6.44731e-232
9.92578e-232
1.51767e-231
2.28342e-231
3.3645e-231
4.8393e-231
6.77524e-231
9.20507e-231
1.20936e-230
1.52975e-230
1.85268e-230
2.1322e-230
2.30686e-230
2.22557e-216
2.05701e-216
1.78754e-216
1.4761e-216
1.16706e-216
8.88382e-217
6.5389e-217
4.66985e-217
3.24509e-217
2.19944e-217
1.45697e-217
9.44962e-218
6.01016e-218
3.75383e-218
2.30529e-218
1.39359e-218
8.30139e-219
4.87735e-219
2.82885e-219
1.62097e-219
9.1832e-220
5.14706e-220
2.85585e-220
1.56952e-220
8.54824e-221
4.61604e-221
2.47248e-221
1.31413e-221
6.93337e-222
3.63248e-222
1.89041e-222
9.77554e-223
5.02448e-223
2.56769e-223
1.30507e-223
6.59938e-224
3.32126e-224
1.66413e-224
8.3048e-225
4.12955e-225
2.04692e-225
1.01187e-225
4.99115e-226
2.45785e-226
1.20904e-226
5.94456e-227
2.92331e-227
1.4388e-227
7.09279e-228
3.50473e-228
1.73726e-228
8.64612e-229
4.3243e-229
2.17552e-229
1.10206e-229
5.62744e-230
2.89993e-230
1.51014e-230
7.96039e-231
4.25916e-231
2.32612e-231
1.31487e-231
7.96206e-232
5.55029e-232
4.89244e-232
5.60169e-232
7.69154e-232
1.14773e-231
1.75453e-231
2.67479e-231
4.0192e-231
5.91859e-231
8.5105e-231
1.19133e-230
1.61844e-230
2.12617e-230
2.68936e-230
3.25701e-230
3.74837e-230
4.05538e-230
3.90933e-216
3.61325e-216
3.13992e-216
2.59289e-216
2.05005e-216
1.56054e-216
1.14865e-216
8.20339e-217
5.70068e-217
3.86389e-217
2.55963e-217
1.6602e-217
1.05599e-217
6.59601e-218
4.05115e-218
2.44933e-218
1.45929e-218
8.5759e-219
4.97557e-219
2.85223e-219
1.61671e-219
9.06751e-220
5.03536e-220
2.77023e-220
1.51072e-220
8.17056e-221
4.38454e-221
2.33553e-221
1.23541e-221
6.49176e-222
3.38993e-222
1.75971e-222
9.08347e-223
4.66404e-223
2.38291e-223
1.21179e-223
6.13571e-224
3.09434e-224
1.55487e-224
7.78773e-225
3.88951e-225
1.93792e-225
9.6369e-226
4.78537e-226
2.37412e-226
1.17746e-226
5.84127e-227
2.90047e-227
1.44253e-227
7.19108e-228
3.59592e-228
1.8052e-228
9.10579e-229
4.61937e-229
2.35908e-229
1.21408e-229
6.30358e-230
3.30605e-230
1.75427e-230
9.44032e-231
5.17632e-231
2.92458e-231
1.75064e-231
1.18001e-231
9.81301e-232
1.05829e-231
1.3979e-231
2.047e-231
3.10384e-231
4.71555e-231
7.07515e-231
1.04117e-230
1.49664e-230
2.09469e-230
2.8454e-230
3.73785e-230
4.72778e-230
5.72555e-230
6.58921e-230
7.12885e-230
6.86671e-216
6.34669e-216
5.51531e-216
4.55446e-216
3.60099e-216
2.74118e-216
2.01769e-216
1.44101e-216
1.0014e-216
6.78754e-217
4.49651e-217
2.91657e-217
1.85518e-217
1.15886e-217
7.11798e-218
4.30391e-218
2.56453e-218
1.50734e-218
8.74707e-219
5.01556e-219
2.84391e-219
1.59574e-219
8.8664e-220
4.88136e-220
2.66435e-220
1.44255e-220
7.75136e-221
4.13553e-221
2.19168e-221
1.15422e-221
6.04275e-222
3.14605e-222
1.62941e-222
8.3979e-223
4.30852e-223
2.20111e-223
1.12009e-223
5.67942e-224
2.87045e-224
1.44659e-224
7.27209e-225
3.64811e-225
1.8271e-225
9.13993e-226
4.56907e-226
2.28375e-226
1.14196e-226
5.71606e-227
2.86596e-227
1.44034e-227
7.26111e-228
3.67468e-228
1.8684e-228
9.55296e-229
4.91616e-229
2.54898e-229
1.33299e-229
7.03932e-230
3.75938e-230
2.03477e-230
1.12066e-230
6.33907e-231
3.76817e-231
2.47902e-231
1.96646e-231
2.00742e-231
2.54907e-231
3.65717e-231
5.49505e-231
8.31596e-231
1.24561e-230
1.83162e-230
2.63192e-230
3.68294e-230
5.00235e-230
6.57093e-230
8.31083e-230
1.00646e-229
1.15825e-229
1.2531e-229
1.2061e-215
1.11477e-215
9.68743e-216
7.99979e-216
6.32507e-216
4.81488e-216
3.5441e-216
2.53118e-216
1.75901e-216
1.19229e-216
7.89865e-217
5.1234e-217
3.259e-217
2.03584e-217
1.25051e-217
7.56171e-218
4.50606e-218
2.64876e-218
1.53727e-218
8.81615e-219
5.00001e-219
2.80635e-219
1.55987e-219
8.59187e-220
4.69243e-220
2.54251e-220
1.36745e-220
7.30387e-221
3.87606e-221
2.0446e-221
1.07247e-221
5.59604e-222
2.90575e-222
1.50199e-222
7.73134e-223
3.96426e-223
2.02551e-223
1.03161e-223
5.23902e-224
2.65397e-224
1.34156e-224
6.76962e-225
3.41141e-225
1.71756e-225
8.64374e-226
4.3503e-226
2.19077e-226
1.10454e-226
5.57879e-227
2.82457e-227
1.43457e-227
7.31419e-228
3.74652e-228
1.92961e-228
1.00018e-228
5.22241e-229
2.74975e-229
1.46166e-229
7.85474e-230
4.27561e-230
2.3658e-230
1.3412e-230
7.94185e-231
5.13509e-231
3.9232e-231
3.81419e-231
4.6595e-231
6.54336e-231
9.73508e-231
1.46696e-230
2.19318e-230
3.22226e-230
4.62831e-230
6.47524e-230
8.79401e-230
1.15508e-229
1.46087e-229
1.7691e-229
2.03589e-229
2.20258e-229
2.1184e-215
1.95799e-215
1.70152e-215
1.4051e-215
1.11096e-215
8.45709e-216
6.22508e-216
4.44597e-216
3.08971e-216
2.09428e-216
1.38744e-216
8.99966e-217
5.72481e-217
3.57628e-217
2.19679e-217
1.32842e-217
7.91653e-218
4.65381e-218
2.70116e-218
1.54927e-218
8.78784e-219
4.93327e-219
2.74275e-219
1.5112e-219
8.25669e-220
4.47602e-220
2.40888e-220
1.28766e-220
6.84001e-221
3.61229e-221
1.89742e-221
9.91696e-222
5.15935e-222
2.67284e-222
1.37933e-222
7.09297e-223
3.63582e-223
1.85839e-223
9.47509e-224
4.82046e-224
2.448e-224
1.24141e-224
6.28883e-225
3.18389e-225
1.61165e-225
8.16051e-226
4.13536e-226
2.09843e-226
1.06686e-226
5.43784e-227
2.78055e-227
1.42734e-227
7.3611e-228
3.817e-228
1.99175e-228
1.04684e-228
5.54742e-229
2.96717e-229
1.604e-229
8.77937e-230
4.88075e-230
2.77488e-230
1.64028e-230
1.04771e-230
7.77201e-231
7.24331e-231
8.52891e-231
1.17196e-230
1.7256e-230
2.58835e-230
3.86192e-230
5.66882e-230
8.1389e-230
1.13842e-229
1.54591e-229
2.03038e-229
2.5678e-229
3.10948e-229
3.57836e-229
3.87131e-229
3.72066e-215
3.43893e-215
2.98849e-215
2.46789e-215
1.95128e-215
1.48541e-215
1.09338e-215
7.80905e-216
5.42692e-216
3.67855e-216
2.43702e-216
1.58081e-216
1.00559e-216
6.28201e-217
3.85892e-217
2.33359e-217
1.39071e-217
8.1758e-218
4.74566e-218
2.7221e-218
1.54419e-218
8.66973e-219
4.82088e-219
2.65676e-219
1.45195e-219
7.87384e-220
4.23934e-220
2.26735e-220
1.20523e-220
6.3702e-221
3.34943e-221
1.75271e-221
9.1316e-222
4.73863e-222
2.45014e-222
1.26276e-222
6.48923e-223
3.32631e-223
1.7013e-223
8.68561e-224
4.42768e-224
2.2546e-224
1.14722e-224
5.83555e-225
2.96868e-225
1.51107e-225
7.69934e-226
3.92911e-226
2.0093e-226
1.03028e-226
5.30033e-227
2.73762e-227
1.42062e-227
7.41223e-228
3.8917e-228
2.05794e-228
1.09709e-228
5.90235e-229
3.20866e-229
1.76552e-229
9.86083e-230
5.62432e-230
3.32366e-230
2.10503e-230
1.52617e-230
1.37218e-230
1.56163e-230
2.10033e-230
3.05981e-230
4.5677e-230
6.80071e-230
9.97297e-230
1.43119e-229
2.00141e-229
2.71745e-229
3.56882e-229
4.51324e-229
5.46517e-229
6.28915e-229
6.80398e-229
6.53465e-215
6.03987e-215
5.24876e-215
4.33445e-215
3.42712e-215
2.60891e-215
1.92039e-215
1.37157e-215
9.53185e-216
6.46108e-216
4.28048e-216
2.77663e-216
1.7663e-216
1.10344e-216
6.77836e-217
4.09914e-217
2.44296e-217
1.43622e-217
8.33691e-218
4.78227e-218
2.71304e-218
1.52334e-218
8.47158e-219
4.66927e-219
2.55227e-219
1.38439e-219
7.45588e-220
3.98915e-220
2.12145e-220
1.12194e-220
5.90332e-221
3.0918e-221
1.6125e-221
8.37808e-222
4.33826e-222
2.23965e-222
1.15319e-222
5.92424e-223
3.03764e-223
1.55513e-223
7.95211e-224
4.06296e-224
2.07497e-224
1.05966e-224
5.41351e-225
2.76786e-225
1.41697e-225
7.26674e-226
3.73518e-226
1.92538e-226
9.95894e-227
5.17225e-227
2.69905e-227
1.4162e-227
7.47759e-228
3.97637e-228
2.13156e-228
1.15302e-228
6.30112e-229
3.48445e-229
1.95491e-229
1.11881e-229
6.61598e-230
4.16618e-230
2.9676e-230
2.58919e-230
2.85731e-230
3.76455e-230
5.42645e-230
8.06127e-230
1.1976e-229
1.75448e-229
2.51661e-229
3.51843e-229
4.7766e-229
6.27265e-229
7.93223e-229
9.60504e-229
1.1053e-228
1.19577e-228
1.14766e-214
1.06077e-214
9.21831e-215
7.61255e-215
6.01905e-215
4.58206e-215
3.37283e-215
2.40895e-215
1.67413e-215
1.13481e-215
7.51821e-216
4.8769e-216
3.1024e-216
1.93815e-216
1.19061e-216
7.2002e-217
4.29118e-217
2.52285e-217
1.46449e-217
8.401e-218
4.76619e-218
2.67631e-218
1.48845e-218
8.20461e-219
4.48525e-219
2.43325e-219
1.31073e-219
7.0146e-220
3.73158e-220
1.97426e-220
1.03932e-220
5.44665e-221
2.84278e-221
1.47836e-221
7.66333e-222
3.96125e-222
2.04264e-222
1.05115e-222
5.40026e-223
2.77077e-223
1.42031e-223
7.27659e-224
3.72734e-224
1.90971e-224
9.79063e-225
5.02474e-225
2.58268e-225
1.33011e-225
6.86723e-226
3.55621e-226
1.84821e-226
9.64587e-227
5.05869e-227
2.66777e-227
1.41578e-227
7.56719e-228
4.07705e-228
2.21643e-228
1.21717e-228
6.76237e-229
3.81024e-229
2.18811e-229
1.2956e-229
8.12789e-230
5.71159e-230
4.86095e-230
5.21973e-230
6.74521e-230
9.62306e-230
1.42265e-229
2.1089e-229
3.08643e-229
4.42502e-229
6.18505e-229
8.3957e-229
1.10244e-228
1.39406e-228
1.688e-228
1.94243e-228
2.1014e-228
2.01555e-214
1.86296e-214
1.61896e-214
1.33695e-214
1.0571e-214
8.04734e-215
5.92365e-215
4.23083e-215
2.94031e-215
1.9931e-215
1.32046e-215
8.56562e-216
5.449e-216
3.40418e-216
2.09122e-216
1.26468e-216
7.53738e-217
4.43143e-217
2.57246e-217
1.47572e-217
8.37255e-218
4.70153e-218
2.61492e-218
1.44148e-218
7.88084e-219
4.2758e-219
2.30356e-219
1.233e-219
6.56069e-220
3.472e-220
1.82841e-220
9.58612e-221
5.00597e-221
2.60498e-221
1.3514e-221
6.99201e-222
3.60946e-222
1.85984e-222
9.5691e-223
4.91809e-223
2.52592e-223
1.29689e-223
6.65919e-224
3.42091e-224
1.7589e-224
9.05535e-225
4.67006e-225
2.41376e-225
1.25093e-225
6.50374e-226
3.3941e-226
1.77899e-226
9.37092e-227
4.96413e-227
2.64649e-227
1.42103e-227
7.69144e-228
4.20044e-228
2.31707e-228
1.2929e-228
7.31422e-229
4.21444e-229
2.49961e-229
1.56448e-229
1.08808e-229
9.07357e-230
9.51363e-230
1.20769e-229
1.70609e-229
2.51042e-229
3.71339e-229
5.42924e-229
7.7802e-229
1.08721e-228
1.47561e-228
1.9375e-228
2.44989e-228
2.96637e-228
3.41344e-228
3.69276e-228
3.53969e-214
3.27171e-214
2.84321e-214
2.34797e-214
1.8565e-214
1.4133e-214
1.04034e-214
7.43042e-215
5.16397e-215
3.50045e-215
2.31913e-215
1.5044e-215
9.5703e-216
5.97897e-216
3.67298e-216
2.22129e-216
1.32389e-216
7.78362e-217
4.51849e-217
2.59213e-217
1.47069e-217
8.25877e-218
4.59356e-218
2.53232e-218
1.38455e-218
7.51247e-219
4.04766e-219
2.1668e-219
1.1531e-219
6.10352e-220
3.21498e-220
1.68608e-220
8.80814e-221
4.58565e-221
2.38025e-221
1.23236e-221
6.36692e-222
3.28382e-222
1.69147e-222
8.70473e-223
4.47741e-223
2.30276e-223
1.18466e-223
6.09869e-224
3.14308e-224
1.6223e-224
8.3899e-225
4.34938e-225
2.26127e-225
1.17964e-225
6.1781e-226
3.25022e-226
1.71865e-226
9.14036e-227
4.89262e-227
2.63785e-227
1.43366e-227
7.86174e-228
4.35443e-228
2.43938e-228
1.38518e-228
8.00708e-229
4.75807e-229
2.97417e-229
2.05236e-229
1.68337e-229
1.72914e-229
2.15999e-229
3.02349e-229
4.42907e-229
6.53789e-229
9.54969e-229
1.36785e-228
1.91101e-228
2.59338e-228
3.40489e-228
4.30516e-228
5.21263e-228
5.99813e-228
6.48891e-228
6.2162e-214
5.74561e-214
4.99312e-214
4.12342e-214
3.26034e-214
2.48201e-214
1.82704e-214
1.30494e-214
9.06911e-215
6.14764e-215
4.07299e-215
2.64214e-215
1.68083e-215
1.05009e-215
6.45098e-216
3.90138e-216
2.32525e-216
1.36712e-216
7.93641e-217
4.55298e-217
2.58326e-217
1.45068e-217
8.06895e-218
4.44837e-218
2.43224e-218
1.31978e-218
7.11133e-219
3.80716e-219
2.02625e-219
1.07266e-219
5.65108e-220
2.96429e-220
1.54896e-220
8.06674e-221
4.18883e-221
2.1698e-221
1.12168e-221
5.78927e-222
2.9845e-222
1.53741e-222
7.9169e-223
4.07705e-223
2.10057e-223
1.0832e-223
5.59293e-224
2.89278e-224
1.49943e-224
7.7923e-225
4.06203e-225
2.12507e-225
1.11631e-225
5.89139e-226
3.12556e-226
1.66798e-226
8.95989e-227
4.84816e-227
2.64459e-227
1.45556e-227
8.09155e-228
4.54927e-228
2.59214e-228
1.50292e-228
8.9486e-229
5.59044e-229
3.83511e-229
3.10379e-229
3.13297e-229
3.85806e-229
5.35516e-229
7.81204e-229
1.15092e-228
1.67957e-228
2.40469e-228
3.3588e-228
4.55759e-228
5.98332e-228
7.56504e-228
9.15942e-228
1.05395e-227
1.14018e-227
1.09163e-213
1.00899e-213
8.76849e-214
7.24123e-214
5.72559e-214
4.35877e-214
3.20857e-214
2.2917e-214
1.5927e-214
1.07965e-214
7.15306e-215
4.64022e-215
2.95196e-215
1.84425e-215
1.13298e-215
6.85204e-216
4.08391e-216
2.40114e-216
1.39394e-216
7.99687e-217
4.53733e-217
2.54807e-217
1.41731e-217
7.81377e-218
4.27246e-218
2.31841e-218
1.24928e-218
6.68855e-219
3.56005e-219
1.88479e-219
9.93073e-220
5.20993e-220
2.72289e-220
1.41836e-220
7.36722e-221
3.81752e-221
1.9743e-221
1.01951e-221
5.25906e-222
2.71108e-222
1.39727e-222
7.20283e-223
3.71528e-223
1.91836e-223
9.91973e-224
5.13914e-224
2.66865e-224
1.38964e-224
7.25981e-225
3.80694e-225
2.00484e-225
1.06089e-225
5.64421e-226
3.02095e-226
1.62772e-226
8.83518e-227
4.83492e-227
2.66975e-227
1.48898e-227
8.39845e-228
4.80027e-228
2.79097e-228
1.66507e-228
1.04016e-228
7.10438e-229
5.68822e-229
5.65792e-229
6.88071e-229
9.47868e-229
1.37747e-228
2.02571e-228
2.95368e-228
4.22712e-228
5.90309e-228
8.00905e-228
1.05138e-227
1.32927e-227
1.60938e-227
1.85184e-227
2.00333e-227
1.91697e-213
1.77186e-213
1.53981e-213
1.27162e-213
1.00547e-213
7.65446e-214
5.63462e-214
4.02452e-214
2.79702e-214
1.89604e-214
1.2562e-214
8.14912e-215
5.18426e-215
3.23893e-215
1.98979e-215
1.2034e-215
7.17252e-216
4.21715e-216
2.44821e-216
1.40454e-216
7.96928e-217
4.47546e-217
2.48943e-217
1.37247e-217
7.50465e-218
4.07244e-218
2.1945e-218
1.17497e-218
6.25422e-219
3.31137e-219
1.74486e-219
9.15492e-220
4.78528e-220
2.49306e-220
1.29519e-220
6.71304e-221