/*--------------------------------*- C++ -*----------------------------------*\
  =========                 |
  \\      /  F ield         | OpenFOAM: The Open Source CFD Toolbox
   \\    /   O peration     | Website:  https://openfoam.org
    \\  /    A nd           | Version:  11
     \\/     M anipulation  |
\*---------------------------------------------------------------------------*/
FoamFile
{
    format      ascii;
    class       volScalarField;
    location    "100";
    object      C;
}
// * * * * * * * * * * * * * * * * * * * * * * * * * * * * * * * * * * * * * //

dimensions      [0 0 0 1 0 0 0];

internalField   nonuniform List<scalar> 
427520
(
-8.08008e-312
-2.27452e-311
-7.5511e-312
-1.83389e-311
-5.31901e-312
-1.22099e-311
2.38205e-311
2.6226e-311
1.87176e-311
3.32913e-312
1.81006e-311
-2.60847e-311
-4.87967e-311
-2.00893e-311
1.43962e-311
-1.03925e-311
-8.12576e-312
-2.32317e-311
3.72931e-313
1.35802e-311
1.79484e-311
3.37066e-311
4.08472e-312
9.21291e-312
4.75997e-312
-5.06521e-312
2.73533e-312
2.314e-312
-4.70224e-312
-7.27226e-312
-1.88846e-311
3.15931e-311
2.27222e-311
2.70374e-311
7.4737e-312
-1.56967e-311
3.38256e-312
2.4571e-312
-2.86506e-313
-9.93213e-312
-1.0019e-311
7.31191e-312
3.7437e-311
3.8397e-311
2.72421e-311
4.81939e-311
1.64519e-311
-1.34495e-312
7.20959e-312
6.92407e-313
1.95362e-312
1.89444e-311
8.51726e-312
6.90273e-312
2.96986e-311
3.50222e-313
-2.87469e-311
-2.19247e-311
-3.2255e-311
-3.26884e-311
-1.69435e-311
-1.11693e-311
1.58961e-312
6.67842e-313
-1.27329e-312
5.22702e-312
4.87257e-312
1.28728e-311
1.98986e-311
3.63134e-311
2.55716e-311
7.32527e-313
-1.04579e-311
-2.31155e-311
-2.6267e-311
-1.20622e-311
-1.50507e-311
-3.01402e-311
-2.57517e-311
-1.20124e-311
3.24286e-311
2.1128e-311
-3.393e-312
-1.01578e-312
-9.06723e-312
-1.90885e-311
-9.58632e-312
1.4427e-311
2.98511e-311
2.15919e-311
5.08616e-311
-7.73046e-312
-3.74805e-311
-2.8433e-311
-1.36828e-311
-1.00614e-311
1e-311
3.29808e-312
1.42341e-311
1.68721e-311
6.81481e-313
1.66223e-311
3.1022e-311
3.68629e-311
1.31188e-312
1.52487e-311
5.02939e-312
-5.76621e-312
1.66528e-311
-5.80029e-311
-5.04734e-311
-5.28168e-311
-5.80074e-311
-4.9279e-311
-8.37143e-311
-7.0911e-311
-3.97093e-312
-1.58768e-311
-6.73079e-312
-3.67533e-312
-3.1875e-311
3.07093e-311
2.16079e-311
3.5976e-311
5.00144e-311
3.21456e-311
1.12244e-311
3.97526e-311
3.80531e-311
-2.84442e-311
-6.14118e-311
-2.92383e-311
-2.10184e-311
2.00145e-311
-1.26468e-311
-1.96754e-311
-4.30834e-311
-2.60344e-311
-3.10895e-312
2.14291e-311
2.86272e-311
3.28742e-311
3.02996e-311
2.08093e-311
9.90653e-313
-4.08341e-311
-3.50635e-311
-2.89802e-311
-1.18188e-311
9.35484e-313
-1.88569e-312
-1.98352e-311
-6.39697e-312
-1.85553e-311
-2.41639e-311
1.31029e-312
-2.20131e-311
-7.17822e-311
-8.13952e-311
-1.05097e-310
-7.03915e-312
8.70364e-311
6.86153e-311
4.33406e-311
1.00057e-311
-2.00268e-311
-2.77854e-311
-4.6902e-313
6.08888e-313
1.18549e-311
1.73381e-311
-6.27109e-312
-4.06503e-311
-1.23132e-311
4.09697e-311
2.2132e-311
4.10223e-311
2.21083e-311
3.01717e-311
2.15728e-311
1.10758e-311
8.95593e-312
-1.14009e-312
2.64047e-311
-2.68511e-312
3.54109e-311
9.14663e-313
-7.90449e-313
1.4666e-311
-8.19108e-311
-2.81196e-311
-2.60935e-311
-4.2261e-311
-4.59856e-311
-3.60093e-311
-2.10091e-311
1.91707e-312
-8.06885e-312
-2.75356e-312
-3.00965e-311
-5.10892e-311
-2.52449e-311
1.429e-312
1.25728e-311
3.8712e-311
1.11698e-311
1.75664e-311
3.90104e-311
-3.99652e-311
-8.63507e-311
-1.16293e-310
-8.19358e-311
-2.43374e-311
3.29326e-312
3.66805e-312
-1.56388e-311
-2.57414e-311
-4.0728e-311
2.00372e-311
3.16702e-311
2.3638e-311
2.0186e-311
-4.41532e-312
-1.84756e-311
-5.89598e-311
-5.44612e-311
-4.37714e-312
2.39115e-312
-1.34842e-311
-2.1527e-311
-1.92996e-312
-1.50502e-311
1.15205e-311
1.11594e-311
4.29537e-312
-1.84488e-311
-6.64273e-311
-1.22861e-310
-9.64949e-311
-9.02804e-311
-1.39475e-310
-4.04771e-311
-5.31404e-312
1.3357e-311
-2.57138e-312
-5.88127e-311
-3.12026e-311
-2.75575e-312
-1.2026e-311
-3.43091e-311
-2.99686e-311
2.39241e-311
-1.03095e-312
4.06332e-311
6.18054e-311
5.79488e-311
4.95105e-311
4.13277e-311
6.85618e-311
1.94768e-311
1.13041e-311
-2.7447e-312
6.43319e-313
-4.99334e-312
-1.84211e-311
9.80748e-312
5.12241e-312
1.76097e-311
4.76748e-312
-3.05556e-311
-2.09467e-311
-5.3962e-311
-4.63976e-311
-7.63937e-311
-7.65521e-311
-3.2059e-311
-7.43113e-312
2.04066e-311
1.56525e-311
3.58288e-311
-2.38362e-311
1.63476e-311
-6.23312e-311
-3.43886e-311
-3.31763e-314
-3.75037e-311
-1.93657e-311
-5.03551e-311
-8.13132e-311
-1.53791e-310
-1.25575e-310
-7.34935e-311
-3.18829e-311
-5.5336e-313
2.69826e-311
1.51268e-311
2.02251e-311
9.11748e-312
1.7354e-311
1.41046e-311
-2.84885e-311
1.92046e-311
6.03448e-312
-1.46362e-311
-6.13866e-311
-5.28271e-311
-6.81409e-312
1.0458e-311
2.5435e-311
3.75257e-312
-2.4729e-311
-3.74148e-311
-4.03177e-313
-2.45237e-312
-1.18485e-311
-2.10236e-311
-7.20775e-311
-6.5472e-311
-3.15912e-311
-9.02963e-311
-1.48037e-310
-1.28185e-310
-4.86311e-311
-5.96462e-311
-4.93368e-311
-9.23207e-311
-7.2007e-311
-6.09918e-311
-3.81637e-311
-7.11403e-311
-2.12998e-311
1.28654e-311
3.49917e-311
1.02121e-310
9.99777e-311
9.82794e-311
6.11579e-311
7.0771e-311
1.34164e-310
8.99838e-311
2.78694e-311
2.1189e-311
3.3636e-312
-1.25762e-311
1.26074e-311
4.34355e-311
4.14831e-311
4.67145e-311
5.92441e-311
1.03877e-311
1.59173e-311
-1.1188e-311
-2.98639e-311
-5.61781e-311
-6.43862e-311
-1.7329e-311
6.35217e-312
6.87692e-313
1.89946e-311
3.2888e-311
3.18502e-311
-5.76714e-312
-4.85486e-311
-7.19178e-313
1.10717e-311
-3.20496e-311
5.19423e-312
-2.11811e-311
-1.41492e-310
-1.24625e-310
-7.25303e-311
-1.55635e-311
-3.36711e-311
-2.37501e-311
6.10442e-312
2.51519e-311
1.54249e-311
3.69668e-312
-1.35962e-311
-5.09246e-311
-6.38674e-311
-3.09606e-311
-2.06418e-311
-3.65376e-311
-4.03655e-311
-3.90643e-311
-2.88226e-311
-2.44436e-311
-5.05871e-311
-7.57454e-311
-1.19133e-310
-9.56625e-311
-2.43072e-311
-1.18505e-311
-4.31172e-311
-6.4207e-311
-9.20231e-311
-1.04526e-310
-3.45655e-311
-2.10646e-311
-1.11082e-310
-1.32929e-310
-1.63762e-310
-8.32239e-311
-5.24135e-311
-8.39863e-311
-1.02989e-310
-6.65184e-311
-9.14202e-311
-6.12727e-311
-3.1188e-311
-4.02756e-311
-2.51466e-311
6.7923e-311
7.85102e-311
6.11992e-311
7.55384e-311
1.13875e-310
1.43118e-310
9.32661e-311
2.70549e-311
-6.49709e-312
-6.45644e-311
-6.3062e-311
-1.35832e-312
7.05856e-311
3.97393e-311
2.69667e-311
5.10566e-311
2.22868e-311
5.40461e-311
9.67323e-312
5.77897e-313
-6.22054e-311
-5.78721e-311
-6.12052e-311
-5.23247e-311
-6.855e-312
-4.78439e-314
4.30389e-311
1.40875e-311
-4.84664e-311
-3.49951e-311
-2.23758e-311
-2.28927e-311
1.16615e-311
4.40791e-313
-4.3893e-311
-6.33374e-311
-1.04062e-310
-6.88277e-311
-9.26364e-312
5.63383e-312
2.86859e-311
-9.83425e-313
-7.73857e-312
1.10514e-311
4.93014e-312
-1.68605e-311
-7.49773e-311
-7.26805e-311
-3.37455e-311
-1.30531e-311
-5.56034e-311
-4.22664e-311
-1.94382e-311
-4.10763e-311
-5.59237e-311
-3.01343e-311
-1.01648e-310
-1.26141e-310
-7.65481e-311
-7.01073e-311
-5.89778e-311
-9.62232e-311
-1.1704e-310
-1.32357e-310
-5.42302e-311
-7.77932e-311
-5.85281e-311
-2.00031e-310
-2.0768e-310
-2.34087e-310
-1.47544e-310
-3.36553e-311
-3.43697e-311
-4.07735e-311
-8.62284e-311
-6.66733e-311
-6.17314e-311
-1.206e-310
-9.10909e-311
-1.7028e-311
1.35321e-312
-1.37596e-312
2.36972e-311
6.84207e-311
9.14597e-311
8.37171e-311
5.72239e-311
1.53882e-311
1.91921e-311
-2.48892e-311
-4.54989e-311
-2.55765e-311
-3.17416e-311
3.10532e-311
1.02042e-312
1.80822e-311
-1.42357e-311
4.44422e-311
8.99678e-312
-2.35075e-311
-3.01992e-311
-2.47266e-311
-4.23564e-311
-3.78405e-311
-2.01645e-312
2.42026e-311
2.58993e-313
3.14869e-311
-4.42858e-311
-2.04582e-312
-1.149e-311
-1.48353e-311
1.96261e-311
-1.80113e-311
9.80619e-312
-5.39965e-311
-9.31087e-311
-3.96346e-311
-6.09997e-312
2.03232e-311
3.26048e-311
2.23492e-311
3.0457e-311
1.48647e-311
-1.83549e-311
-2.31075e-311
-6.5143e-311
-1.07372e-311
-5.11091e-312
1.40613e-311
1.82524e-311
-2.05911e-311
-2.6192e-311
-6.16829e-311
-8.38719e-311
-8.9598e-311
-7.02388e-311
-1.19128e-310
-8.94612e-311
-4.23244e-311
-4.58802e-311
-3.50476e-311
-5.0323e-311
-7.07216e-311
-5.09944e-311
-5.85205e-311
-4.49572e-311
1.07922e-311
-5.97732e-312
-1.10834e-310
-7.97861e-311
-2.89296e-311
-3.25704e-311
2.33476e-311
-3.6256e-311
-3.40433e-311
-4.32865e-311
-1.3532e-310
-7.31785e-311
-2.25208e-311
4.74745e-312
1.02092e-311
1.58656e-311
2.58579e-311
7.06151e-311
6.95931e-311
5.05382e-311
9.58009e-311
6.04164e-311
4.13011e-312
-5.54501e-312
-1.20813e-311
-8.15756e-312
2.48283e-311
1.38766e-311
1.46857e-311
4.11226e-312
4.11593e-311
4.23556e-311
-1.00285e-311
-3.43465e-311
-5.48742e-311
-3.16286e-311
-3.06388e-312
2.91408e-311
1.36276e-311
-4.35612e-312
-4.50815e-311
-9.31128e-311
-4.7084e-311
5.86536e-312
-9.63135e-313
2.9859e-312
4.08859e-311
2.40245e-311
-7.74441e-312
-7.40655e-311
-2.14525e-312
3.76975e-311
4.04407e-311
1.51624e-311
8.00279e-312
4.19103e-311
1.87072e-312
2.58363e-311
-1.99894e-311
-4.74586e-311
-6.04494e-312
-3.21624e-312
1.73318e-311
1.21695e-311
-1.00798e-311
-3.48721e-311
-6.0973e-311
-8.44454e-311
-1.09575e-310
-1.07907e-310
-1.19336e-310
-1.09801e-310
-6.10451e-311
-6.00042e-311
6.89994e-311
6.29114e-311
3.29916e-312
2.41912e-311
-2.11454e-311
-7.46237e-311
-1.76305e-310
-2.64749e-310
-1.62013e-310
-1.40792e-310
-5.86186e-311
-5.49473e-311
8.59488e-312
1.65623e-311
-3.51126e-311
-4.37935e-311
-7.33065e-311
-3.61695e-311
-1.96178e-312
1.35248e-311
3.77859e-311
2.70726e-311
2.75366e-311
4.74884e-311
6.64308e-311
2.92407e-311
3.27158e-311
4.35485e-311
4.31203e-311
2.73932e-311
1.70914e-311
4.56751e-311
4.85954e-311
1.17848e-311
2.54196e-311
1.39476e-311
1.95248e-311
2.38164e-311
-1.25994e-311
-4.02068e-311
-6.75772e-311
-1.75249e-311
-1.84006e-311
1.15846e-311
-5.89307e-312
7.73073e-312
-6.41961e-311
-8.21362e-311
-5.60515e-311
-3.41307e-311
-2.88679e-311
3.53722e-311
8.5183e-311
3.68304e-311
3.01808e-312
-1.89602e-311
4.12098e-311
5.56135e-311
5.17793e-311
4.62185e-311
-4.25265e-311
-3.84102e-311
-4.56833e-312
-8.67071e-312
-4.7167e-311
-7.25557e-311
-2.23516e-311
-5.01303e-311
-4.61831e-311
-1.00259e-311
-1.16754e-311
-2.95386e-311
-5.97049e-311
-1.13145e-310
-1.15007e-310
-1.38743e-310
-1.35884e-310
-1.02019e-310
-5.02435e-311
-7.69696e-311
3.80146e-311
1.89888e-311
7.88153e-311
5.98652e-311
-1.76083e-311
-1.43801e-310
-3.47268e-310
-2.91516e-310
-2.8725e-310
-1.32726e-310
-1.11475e-310
-9.37215e-311
-4.45096e-312
8.58344e-312
-3.74444e-311
-2.27381e-311
-3.15657e-311
-1.05745e-311
4.50024e-311
5.43168e-311
5.44497e-311
5.27473e-311
1.426e-311
1.54293e-311
6.23207e-311
6.22277e-311
3.27569e-311
1.17505e-311
3.78762e-311
4.17294e-311
3.91982e-311
8.59172e-312
5.35579e-311
3.53654e-312
5.15499e-312
1.40052e-311
2.15374e-311
-1.14627e-312
1.10169e-311
4.22889e-311
-3.6761e-311
-3.78897e-312
1.28948e-311
-2.39975e-311
-1.26702e-311
-1.88029e-311
-6.47656e-311
-9.45479e-311
-4.74466e-311
-1.40488e-311
2.40645e-311
6.1545e-311
4.55798e-311
-2.48185e-311
-1.32321e-312
1.98767e-311
5.41801e-311
9.88554e-311
6.18099e-311
3.22815e-311
-4.24107e-311
-7.42517e-311
-7.08909e-311
-7.05544e-311
1.1063e-312
-2.57726e-311
4.44019e-313
-4.27421e-311
-5.66503e-311
-1.86983e-311
-2.44828e-311
-8.11487e-312
-5.2469e-311
-5.68426e-311
-8.7479e-311
-9.56605e-311
-1.004e-310
-1.69574e-311
1.70774e-312
-2.03116e-311
-4.05407e-311
-1.4935e-311
-2.59383e-312
4.43792e-311
-4.19068e-312
8.67182e-311
-2.80084e-310
-2.29264e-310
-3.4066e-310
-1.85739e-310
-8.00828e-311
-6.20482e-311
-1.47366e-311
-2.14246e-311
-3.73701e-311
-4.12837e-311
-1.53314e-311
-3.65367e-311
5.63181e-311
6.06242e-311
9.31927e-311
6.21657e-311
3.67427e-311
6.40223e-312
1.97526e-311
1.93494e-311
1.39582e-311
1.64576e-313
5.38409e-311
9.86392e-311
5.66318e-311
3.1317e-311
1.54546e-311
5.61161e-313
-2.24342e-311
-4.46008e-313
7.70995e-312
2.19549e-311
-7.60749e-312
-7.85813e-313
-6.49815e-311
1.96846e-311
3.94986e-311
3.24532e-313
1.2997e-311
4.37816e-312
-3.55491e-311
-8.38189e-311
1.28718e-312
2.14389e-311
2.99616e-311
3.69952e-311
5.10905e-311
-2.38013e-311
3.58499e-312
5.02351e-311
5.09951e-311
9.19435e-311
7.00641e-311
4.62628e-311
-5.48443e-313
-2.43575e-311
-2.53927e-311
-3.55745e-312
2.80361e-312
5.01588e-311
2.59184e-311
-3.50864e-311
-5.99364e-311
-2.49081e-311
-5.0033e-311
-6.75134e-311
-8.27953e-311
-7.33818e-311
-7.58375e-311
-5.44589e-311
-6.43231e-311
-7.7514e-311
-5.97239e-311
-6.43109e-311
-1.02316e-310
2.75171e-311
6.94797e-311
2.13913e-310
3.47062e-310
4.24224e-310
4.3489e-311
-4.87321e-311
-2.15306e-310
-2.06977e-310
-1.69608e-310
-8.63431e-311
-3.91381e-311
-1.82521e-311
-2.37851e-311
-1.55734e-311
-4.01236e-311
-7.42515e-311
-1.30859e-311
5.48008e-311
7.13233e-311
1.20357e-310
7.08234e-311
3.29376e-311
2.5314e-311
5.68843e-311
2.45578e-311
1.08018e-311
7.09706e-311
8.97652e-311
9.89296e-311
7.75494e-311
4.8989e-311
2.28195e-311
1.92142e-311
1.84905e-311
-3.48021e-311
-4.58601e-311
-3.51215e-311
-2.16986e-311
-3.52184e-311
-9.86848e-312
-2.22182e-311
-1.23038e-311
-1.88767e-311
-4.23305e-311
-4.61904e-311
-6.28848e-311
-4.82264e-311
-1.24105e-311
1.38428e-311
2.94266e-311
4.35914e-311
2.29873e-311
4.10443e-311
5.51049e-311
1.9665e-311
4.11752e-311
7.08899e-311
3.67773e-311
4.0051e-311
6.38689e-312
4.77113e-312
6.18917e-311
6.43825e-311
7.49948e-311
2.62744e-311
2.67682e-311
-3.30366e-311
5.68708e-312
-1.93534e-312
1.40745e-311
1.52009e-311
1.80066e-312
-6.51052e-311
-1.81628e-311
-2.14053e-311
-1.34354e-311
-3.53417e-311
-2.63896e-311
-5.25467e-311
2.22849e-311
5.51082e-311
7.55333e-311
9.66483e-311
2.97955e-310
1.01479e-310
6.17909e-311
-8.44557e-311
-1.63455e-310
-2.30573e-310
-2.10029e-310
-6.18189e-311
-5.08444e-311
-6.08795e-311
-4.62843e-311
-9.09225e-311
-4.27639e-311
-2.56668e-311
3.13444e-311
2.88194e-311
1.03425e-310
9.37431e-311
2.51121e-311
-2.21033e-311
2.86279e-311
6.1894e-311
4.70297e-311
2.0101e-311
6.61954e-311
9.13416e-311
7.48815e-311
3.55968e-311
5.05521e-311
6.3417e-311
3.8153e-311
-5.055e-311
-3.06191e-311
-1.65095e-311
-2.52601e-311
-2.31941e-311
-2.60555e-311
-3.89938e-311
-5.31164e-311
-6.07031e-311
-4.09023e-311
-5.47214e-311
-2.82071e-311
-3.78708e-311
-3.62457e-311
-1.70554e-311
3.72511e-311
7.95874e-312
3.56764e-311
5.7487e-311
3.41506e-311
2.88906e-311
7.49745e-311
7.2708e-311
7.42366e-311
4.60072e-311
5.10551e-311
8.23184e-311
9.50431e-311
1.00392e-310
5.94419e-311
-1.80601e-311
-1.42995e-311
-5.51992e-311
1.01658e-311
1.47372e-312
4.2011e-312
-5.57394e-311
-4.34754e-311
-2.99561e-311
5.78957e-311
6.30703e-311
9.084e-311
5.13375e-311
3.25714e-311
-3.98805e-312
9.96031e-312
9.4523e-311
6.1366e-311
4.83505e-311
3.40748e-311
-3.09386e-311
-6.72957e-311
-8.81334e-311
-1.05608e-310
-1.9307e-310
-1.61182e-310
-1.3688e-310
-1.04623e-310
-6.37289e-311
-4.10632e-311
-6.52513e-311
-4.97847e-311
-3.92306e-311
5.60869e-312
2.84926e-311
1.00568e-310
9.94642e-311
1.60401e-311
-1.22348e-311
2.9861e-312
2.40575e-311
1.20344e-312
5.77457e-311
1.17929e-310
6.97257e-311
5.17234e-311
3.15576e-311
5.60974e-311
7.43365e-311
4.8422e-311
-3.07229e-311
-2.87949e-311
-1.97313e-311
-5.15673e-311
4.95404e-313
-3.9946e-311
-8.5661e-311
-7.87066e-311
-1.41936e-310
-1.0518e-310
-6.79978e-311
-2.96606e-311
-3.77331e-311
-6.04122e-311
-8.80025e-311
1.58982e-311
9.17815e-312
8.46073e-312
6.62767e-311
3.29966e-311
2.35464e-311
8.02846e-311
3.47392e-311
3.42536e-311
1.53018e-311
3.32801e-311
5.13853e-311
8.8349e-311
9.89197e-311
-8.03228e-312
-5.23366e-311
-1.42796e-311
1.07701e-311
-1.03738e-311
-3.97607e-311
-3.30183e-311
-7.95091e-311
-8.03737e-311
-2.54206e-311
6.75022e-311
1.39367e-310
1.0418e-310
5.56283e-311
4.5991e-311
1.44453e-311
6.8049e-311
-1.32581e-310
-8.851e-311
3.0654e-311
1.6283e-311
-2.78741e-310
-2.94756e-310
-3.29352e-310
-2.52377e-310
-2.20613e-310
-1.36364e-310
-1.48731e-310
-7.47887e-311
-8.39582e-311
-1.27985e-310
-9.90895e-311
-6.773e-311
-3.64474e-311
4.85229e-311
7.75182e-311
8.10983e-311
8.39475e-311
3.21587e-311
3.37507e-311
4.74927e-311
5.10193e-311
-4.41574e-311
-4.95563e-312
6.94003e-311
7.36608e-311
7.89101e-311
-1.45958e-311
4.17106e-311
1.09944e-310
5.35414e-311
3.9226e-312
-4.61374e-311
-1.59121e-311
-3.26687e-311
-3.40114e-311
-4.3715e-311
-6.37225e-311
-8.30276e-311
-8.49567e-311
-1.05202e-310
-4.13952e-311
-2.58659e-311
1.38417e-312
1.36506e-311
-2.95214e-311
2.1962e-311
1.5794e-311
4.15222e-312
1.48295e-311
4.1002e-311
3.02982e-311
9.44621e-311
2.09663e-311
8.94135e-312
-1.01695e-312
5.25063e-311
1.68566e-312
4.51237e-311
6.63112e-311
-4.31786e-311
-3.12202e-311
2.52846e-311
1.38838e-311
-5.84113e-311
-6.45822e-311
-9.98334e-311
-9.05655e-311
-5.44469e-311
-1.83357e-311
5.1039e-311
1.01015e-310
1.5585e-310
9.37417e-312
1.52206e-311
-3.67973e-311
3.70006e-311
-6.64318e-311
7.34317e-311
7.33473e-311
8.74949e-311
-3.80257e-310
-3.52511e-310
-2.21684e-310
-1.89602e-310
-2.11964e-310
-1.25606e-310
-1.37042e-310
-5.5489e-311
-4.10324e-311
-9.87557e-311
-6.18642e-311
-7.10737e-311
-1.15889e-311
4.22617e-311
8.14251e-311
7.50264e-311
1.00412e-310
5.61033e-311
4.45356e-311
6.89056e-311
7.53604e-311
-1.82678e-311
4.17128e-311
4.57394e-311
4.9795e-311
4.1743e-312
-5.51324e-311
4.92647e-312
8.01017e-311
9.25836e-311
5.09904e-311
-4.61121e-311
-5.33654e-311
-6.54698e-311
-4.1828e-311
-6.90511e-311
-5.28137e-311
-8.64914e-311
-9.99513e-311
-6.87021e-311
-3.2407e-311
1.50648e-312
3.20755e-311
1.43778e-311
3.42887e-312
6.97504e-312
3.06203e-311
4.10617e-311
-1.34155e-311
1.88075e-311
2.50432e-311
3.95654e-311
1.51282e-311
-1.28281e-311
-1.07842e-311
1.934e-311
3.04922e-311
2.60059e-311
4.49568e-311
-8.11674e-312
1.99533e-312
-1.22664e-311
-6.07814e-311
-7.4569e-311
-4.9769e-311
-1.27411e-310
-1.17958e-310
-8.24774e-311
-2.3907e-311
4.08555e-311
3.88393e-311
1.13294e-310
5.4714e-311
2.84337e-311
-8.50146e-311
-1.36666e-310
-1.3646e-310
-2.96113e-311
9.21381e-311
1.24855e-310
-5.41489e-311
-8.87379e-311
-1.43671e-310
-5.74599e-311
-3.33809e-311
3.9478e-312
-1.03582e-310
-1.06909e-310
-8.36019e-311
-1.09878e-310
-3.4547e-311
-4.17194e-311
-3.3026e-311
4.69034e-311
2.99371e-311
2.52702e-311
5.67144e-311
4.6571e-311
3.07867e-311
5.72393e-311
2.84752e-311
3.44671e-312
6.32149e-311
1.05962e-310
5.69194e-311
3.06219e-311
-1.11854e-312
2.35131e-311
4.82131e-311
4.01347e-311
3.32231e-311
-3.79016e-311
-4.68022e-311
-3.10721e-311
-4.51011e-311
-6.99441e-311
-7.77508e-311
-8.09962e-311
-8.99737e-311
-8.88285e-311
4.17815e-312
2.38774e-311
2.39957e-311
-3.18452e-311
-3.31899e-311
-1.02107e-311
-5.01909e-312
1.49597e-311
-1.87362e-311
1.47882e-311
3.92181e-311
-5.30442e-312
2.42527e-311
3.38224e-312
2.09309e-311
3.33727e-311
2.82373e-311
2.09026e-312
5.33942e-311
-4.72162e-312
2.9069e-311
-1.63543e-311
-7.33712e-311
-6.02395e-311
-7.2409e-311
-6.85241e-311
-8.89955e-311
-1.14881e-310
-2.32627e-311
1.8127e-311
1.99179e-311
7.06113e-311
9.32597e-312
-1.37301e-311
-1.10372e-310
-1.94166e-310
-2.10495e-310
-2.52754e-310
-1.97561e-310
-1.23014e-310
1.84997e-310
6.34723e-311
4.79387e-311
1.16467e-311
6.24446e-311
5.31109e-311
-4.56368e-311
-3.66589e-311
-7.60753e-311
-8.6298e-311
-7.78471e-311
1.02858e-311
4.90605e-311
9.9018e-311
1.0385e-310
5.14599e-311
3.838e-311
8.90295e-312
-4.71396e-311
5.68132e-311
7.8599e-311
1.38142e-311
3.72796e-311
5.52862e-311
5.89943e-311
4.89482e-311
-9.59806e-312
1.53446e-311
6.55669e-311
2.6166e-311
-8.14134e-312
-4.37003e-311
-1.74409e-311
-1.20087e-311
-5.14331e-311
-4.61393e-311
-5.0146e-311
-5.48981e-311
-5.73916e-311
-8.01643e-311
1.07973e-311
9.12289e-312
2.16376e-311
-8.4885e-312
-2.89172e-311
1.78375e-311
5.46291e-312
-4.4543e-312
4.25725e-311
4.57749e-311
2.39652e-311
5.22602e-311
4.25513e-311
7.29833e-312
1.47451e-311
6.08992e-312
2.75704e-311
5.82144e-311
6.52971e-311
5.44802e-311
4.74935e-311
-6.02565e-312
-7.34283e-311
-6.18978e-311
-1.50403e-311
-7.77498e-312
-1.02134e-310
-1.70527e-310
-1.68699e-310
-6.41452e-311
2.61349e-311
8.52483e-311
6.15403e-311
5.40612e-311
-6.05865e-311
-1.58266e-310
-2.19923e-310
-2.81013e-310
-3.47618e-310
-3.97946e-310
4.43765e-310
2.87318e-310
9.65813e-311
2.32037e-311
6.14687e-311
-1.34882e-311
-3.4719e-311
-2.52618e-311
-4.4203e-311
-5.7422e-311
-2.76366e-311
3.0846e-311
7.6232e-311
1.07289e-310
1.07627e-310
4.32462e-311
6.72749e-311
1.83414e-311
-2.12205e-311
5.74031e-311
5.81228e-311
9.33032e-312
-4.87296e-312
1.0442e-310
8.7169e-311
6.33729e-311
1.17473e-311
7.80985e-312
8.82369e-311
2.17042e-311
-6.82532e-311
-2.85615e-311
-2.43626e-311
-5.33083e-311
-6.55349e-311
-7.69564e-311
-3.12013e-311
-2.7591e-311
-2.58747e-311
-5.93966e-311
-1.13078e-311
9.2486e-312
-3.84658e-312
-2.31271e-311
-5.67621e-311
-4.77685e-312
-1.95056e-311
-4.26814e-311
1.4862e-312
5.56581e-311
4.81472e-311
2.78243e-311
2.12765e-311
-1.96921e-311
-1.85155e-311
5.07163e-311
9.37949e-311
4.76799e-311
5.52992e-312
4.40401e-311
7.19055e-311
3.43096e-311
-4.74597e-311
-1.27447e-311
-5.76701e-311
-2.75259e-311
-9.76313e-311
-1.45936e-310
-2.22933e-310
-1.21042e-310
5.79094e-312
5.22297e-311
3.60352e-311
1.73333e-311
-5.61759e-311
-2.21533e-310
-3.00244e-310
-3.98653e-310
-3.85518e-310
-3.30193e-310
4.0856e-310
3.31651e-310
2.90479e-310
1.56972e-310
9.04055e-311
2.98248e-311
5.47296e-311
2.82782e-311
-2.32319e-311
1.1376e-311
-3.01213e-313
1.86342e-312
-3.65002e-312
9.23333e-311
7.69097e-311
2.6824e-311
7.63621e-311
1.01554e-310
7.63531e-311
6.58674e-311
5.83658e-311
3.21261e-311
2.48941e-311
1.01443e-310
8.91336e-311
9.49172e-311
4.68817e-311
1.73316e-311
5.22312e-311
1.59442e-311
-3.62532e-311
-6.21647e-311
-2.03616e-311
-5.51244e-311
-5.41559e-311
-6.27828e-311
-7.98987e-311
-1.222e-310
-8.58615e-311
-6.80454e-311
-1.03113e-311
-1.77762e-312
1.90913e-311
-5.90686e-311
-5.9359e-311
-2.38075e-311
-7.31822e-312
-5.26858e-311
7.9954e-312
7.00559e-311
3.17256e-311
2.30238e-312
-3.29262e-311
-4.15272e-311
-2.82278e-311
4.62009e-311
2.89237e-311
3.43426e-312
1.91337e-311
7.49453e-311
5.96267e-311
6.99432e-311
-1.75982e-311
-9.89344e-314
-3.07706e-311
-1.30489e-310
-1.59532e-310
-1.6046e-310
-1.48631e-310
-1.3187e-310
-3.08832e-311
3.37145e-311
3.49118e-311
-1.06388e-311
-1.9096e-310
-2.57992e-310
-2.82426e-310
-2.46195e-310
-3.48416e-311
-1.00882e-311
3.66811e-310
3.15774e-310
3.47177e-310
2.00114e-310
2.04906e-310
1.45138e-310
8.38775e-311
-5.28974e-312
3.83439e-311
4.43408e-311
-5.00144e-311
-2.63441e-311
-2.40735e-311
5.03455e-311
8.25852e-311
3.21541e-311
1.55138e-311
8.19841e-311
1.03477e-310
7.04007e-311
7.75604e-311
4.31591e-311
5.17812e-311
4.94684e-311
4.64079e-311
7.80892e-311
7.07803e-311
5.24212e-311
6.5717e-311
1.11706e-311
-3.14494e-311
-4.43505e-311
-7.11913e-312
-4.07914e-311
-7.32286e-311
-8.72645e-311
-1.17638e-310
-1.50499e-310
-1.25191e-310
-8.19439e-311
-4.31872e-311
-8.6436e-313
4.91521e-312
-3.31772e-311
-5.4342e-311
-5.57499e-311
-3.21648e-311
-5.3805e-311
-1.25421e-311
5.8909e-311
4.57589e-311
-3.25003e-312
-3.04932e-311
-5.88853e-311
-5.33954e-311
1.47941e-311
1.79183e-311
5.63098e-312
-1.32878e-311
7.25171e-311
8.80609e-311
1.02579e-310
-2.71992e-311
-2.31569e-312
-1.57339e-311
-5.33258e-311
-8.09524e-311
-1.74892e-310
-1.94032e-310
-9.48077e-311
-1.59758e-311
3.28538e-311
5.01217e-311
2.75569e-311
-6.80943e-311
-5.55099e-311
-1.24716e-310
-1.17998e-311
9.7206e-311
1.35153e-310
2.43056e-310
2.01881e-310
1.99457e-310
1.56691e-310
1.1913e-310
1.89351e-310
1.14987e-310
7.52645e-312
2.49671e-311
6.9282e-311
-4.81708e-311
3.38043e-311
1.79302e-312
5.4829e-311
4.50949e-311
7.31151e-311
1.74963e-311
1.87105e-311
6.12514e-311
4.69181e-311
6.89611e-311
4.233e-311
2.05838e-311
4.433e-311
5.44135e-312
6.69928e-311
1.34605e-311
1.74116e-311
7.29541e-311
4.75766e-312
6.51773e-312
-5.42875e-311
-4.65928e-311
-7.96572e-312
-2.4951e-311
-6.92454e-311
-1.08065e-310
-1.30358e-310
-9.73617e-311
-1.71252e-311
-2.55835e-312
6.39206e-312
-2.17422e-311
-2.62954e-311
-7.61599e-311
-6.12644e-311
-9.02073e-312
-2.65827e-311
2.2227e-312
2.65729e-311
1.58228e-312
8.21351e-312
5.33453e-311
-4.69169e-311
-2.77803e-311
-1.04286e-311
2.74272e-311
2.09692e-311
-3.46992e-311
6.81272e-311
6.73103e-311
5.07134e-311
2.68762e-311
-2.86603e-312
-2.71739e-311
-2.7905e-311
-7.047e-311
-1.10151e-310
-8.82187e-311
-4.94387e-311
7.3688e-311
1.6037e-311
5.31733e-311
-6.87298e-311
-1.37745e-310
-8.80352e-311
-3.63961e-311
6.85674e-311
1.41297e-310
1.08509e-310
1.11969e-310
2.60385e-310
2.20158e-310
1.09998e-310
4.98352e-311
-2.28653e-311
-2.42946e-311
-5.7962e-311
-3.98546e-311
4.11326e-311
-7.0428e-313
-6.26181e-312
-2.14966e-311
1.67192e-311
-2.19913e-311
2.43584e-311
-2.95891e-311
1.62078e-311
4.5649e-311
1.71108e-312
4.53697e-311
2.18703e-311
-6.12382e-312
5.883e-311
-4.88161e-312
5.26071e-311
5.25359e-312
2.01133e-311
4.50996e-311
-1.99539e-311
-1.69289e-311
-4.02328e-311
-5.32553e-311
-3.99814e-311
-5.32145e-311
-6.48094e-311
-1.31423e-310
-1.12466e-310
-7.73091e-311
6.16706e-312
-5.1518e-311
-6.00523e-311
-7.75949e-311
-7.44454e-311
-6.86586e-311
-6.36524e-311
-3.09579e-311
-3.83812e-311
1.54245e-312
-2.60268e-312
2.0444e-311
1.41364e-311
1.56263e-311
-8.11881e-311
-6.04606e-311
2.09775e-311
1.57284e-311
2.87178e-312
-5.35306e-311
6.4043e-314
2.29517e-312
-1.09484e-311
-2.38516e-311
-7.25799e-311
-2.48302e-311
-1.64337e-312
-4.76772e-311
-9.08081e-311
-1.1687e-310
-6.74178e-311
-1.58663e-311
3.07113e-311
2.19853e-311
5.22736e-312
-5.10546e-311
-2.41719e-311
-3.80016e-311
-1.74063e-310
-2.59976e-310
-3.08243e-310
1.97845e-310
2.07197e-310
2.47846e-310
1.35348e-310
8.75362e-311
-7.03169e-311
-1.30338e-310
-1.35138e-310
-1.061e-310
-2.31931e-311
-3.28208e-312
5.86249e-311
-3.93498e-311
-1.36759e-311
1.67555e-311
7.4067e-311
5.10981e-311
1.08013e-310
1.15429e-310
2.0667e-311
3.89632e-311
2.32848e-311
2.60693e-311
2.56729e-311
3.18816e-311
2.12456e-311
1.52487e-311
4.29796e-311
5.02539e-311
-2.24634e-311
2.71365e-311
-4.41267e-311
-1.90711e-311
-3.44535e-311
-3.11842e-311
-6.33695e-311
-1.3439e-310
-9.69919e-311
-5.35054e-311
1.08651e-311
-1.79352e-311
-3.42758e-311
-5.65065e-311
-5.98825e-311
-4.60941e-311
-3.99648e-311
-5.79441e-311
-3.69736e-311
9.03143e-312
-4.04565e-311
4.49802e-311
7.5561e-312
-2.00913e-311
-8.98467e-311
-6.54338e-311
-2.57187e-311
4.31487e-311
-3.98871e-313
-8.69245e-311
-4.2461e-311
-2.3913e-311
-7.12705e-311
-8.69577e-311
-1.15032e-310
-9.19032e-311
-1.08124e-310
-1.50885e-310
-1.21973e-310
-9.74848e-311
-8.8369e-311
-7.74603e-311
-9.86838e-311
-3.72707e-311
-6.00205e-311
-1.07651e-310
-5.93923e-311
-5.50229e-312
-7.03339e-311
-1.27797e-310
-2.07602e-310
4.00919e-310
3.21653e-310
2.48849e-310
1.37376e-310
1.09221e-310
-1.47472e-311
-6.84243e-311
-5.73195e-311
-2.12029e-311
-2.57098e-311
-2.75152e-312
5.96578e-311
-5.24756e-313
1.87431e-311
4.47028e-311
7.33701e-311
9.61689e-311
9.26349e-311
1.10876e-310
6.73196e-311
6.56946e-311
3.6059e-311
2.97197e-311
2.3574e-311
-1.60026e-311
-5.99928e-311
-2.33531e-311
-3.21832e-312
2.58328e-311
-5.19015e-312
6.85682e-312
3.02781e-312
-2.46001e-311
-2.49556e-311
-2.67713e-311
-7.34983e-311
-1.14045e-310
-9.86126e-311
-9.0117e-311
-5.0525e-311
-2.41163e-311
-6.41017e-312
-3.22829e-311
-4.4258e-311
-5.3842e-311
-2.68865e-311
-6.12557e-311
-2.97559e-311
2.27121e-311
-4.44534e-311
3.24789e-312
4.79641e-312
-5.79707e-312
-6.3017e-311
-1.59547e-311
-7.33276e-312
6.63169e-311
1.70172e-311
-6.0132e-311
-2.34952e-311
-5.30207e-311
-3.92872e-311
-9.44266e-311
-8.51694e-311
-9.49544e-311
-1.18076e-310
-8.52554e-311
-6.60318e-311
-1.13474e-310
-1.60531e-310
-1.75512e-310
-1.79054e-310
-8.64336e-311
-1.15162e-310
-1.33556e-310
-2.14139e-310
-1.00802e-310
-1.6147e-310
-1.44698e-310
-1.79596e-310
2.63902e-310
2.3315e-310
1.09064e-310
8.88609e-311
2.67013e-311
2.2133e-312
-4.31163e-311
-2.81251e-311
-5.87907e-311
-2.02022e-311
3.35531e-311
2.52187e-311
5.2841e-311
3.75635e-311
4.91649e-311
6.14812e-311
4.55658e-311
4.30973e-311
9.97898e-311
6.52097e-311
7.9641e-311
4.52075e-311
5.99876e-311
4.33862e-311
7.81905e-312
-1.12695e-310
-8.79547e-311
-1.72993e-312
4.26865e-311
1.0048e-311
-2.51304e-312
1.07257e-311
-3.64272e-311
-3.79088e-311
-4.59549e-312
-6.31647e-311
-9.24886e-311
-8.11493e-311
-8.49711e-311
-5.36009e-311
-2.83414e-311
-4.57355e-311
-5.80932e-311
-6.80164e-311
-6.73373e-311
-8.48357e-312
-1.10823e-311
4.14261e-311
6.00163e-312
-1.64393e-311
-2.48499e-311
-1.09785e-311
-1.25868e-311
-4.86202e-311
1.88212e-311
7.583e-311
9.30953e-311
1.08086e-311
-1.29527e-311
-2.69014e-311
-3.43591e-311
-7.39175e-311
-8.08075e-311
-5.54358e-311
-6.38434e-311
-1.07169e-310
-4.97455e-311
-5.45533e-311
-5.2486e-311
-1.0008e-310
-1.74986e-310
-1.83384e-310
-9.03287e-311
-2.11974e-310
-2.50477e-310
-2.26241e-310
-1.36639e-310
-1.62451e-310
-1.9823e-310
-2.725e-310
7.2799e-310
6.85375e-310
4.66387e-310
3.30714e-310
1.69783e-310
1.51511e-310
4.66436e-311
-6.29497e-312
-6.68478e-311
2.25964e-312
4.36668e-311
3.66764e-311
8.11924e-311
8.00176e-311
8.31735e-311
1.02642e-310
2.06191e-311
1.62574e-311
6.51593e-311
3.58669e-311
6.17613e-312
4.91905e-311
5.98538e-311
6.2254e-311
5.70658e-311
-8.5434e-312
-1.39484e-311
-1.70925e-311
3.22448e-311
-7.77069e-313
4.31299e-311
-2.42211e-311
-1.70826e-311
-8.42831e-312
1.7817e-312
-4.443e-311
-7.79887e-311
-4.93416e-311
-4.41945e-312
-2.20913e-311
-1.26846e-311
-8.07375e-311
-6.16795e-311
-8.16684e-311
-5.99845e-311
-4.4979e-311
-2.83451e-311
4.39757e-311
2.09543e-311
-9.98704e-312
-5.90746e-311
-4.50236e-311
1.21131e-311
-2.34921e-311
5.56212e-311
7.24093e-311
1.14054e-310
6.58235e-311
-7.64817e-312
-3.83593e-311
-6.97097e-311
-1.13042e-310
-1.24626e-310
-7.48811e-311
-5.15335e-311
-8.74689e-311
-2.51157e-311
-2.99336e-311
-9.26459e-311
-8.96439e-311
-1.13992e-310
-1.28793e-310
-1.02951e-310
-2.17278e-310
-3.52937e-310
-4.10976e-310
-3.83629e-310
-3.94628e-310
-3.81467e-310
-3.34872e-310
6.74655e-310
7.18635e-310
5.08284e-310
3.13669e-310
1.95593e-310
1.0766e-310
4.95837e-311
4.7115e-311
-5.50127e-312
-1.5438e-311
-1.94591e-311
3.69513e-311
7.19934e-311
5.95355e-311
8.54569e-311
9.66917e-311
2.90698e-311
-9.12767e-312
2.17552e-311
-5.20217e-311
-2.84727e-311
9.81613e-312
5.80342e-311
4.897e-311
6.39882e-311