/*--------------------------------*- C++ -*----------------------------------*\
  =========                 |
  \\      /  F ield         | OpenFOAM: The Open Source CFD Toolbox
   \\    /   O peration     | Website:  https://openfoam.org
    \\  /    A nd           | Version:  11
     \\/     M anipulation  |
\*---------------------------------------------------------------------------*/
FoamFile
{
    format      ascii;
    class       volScalarField;
    location    "5";
    object      C;
}
// * * * * * * * * * * * * * * * * * * * * * * * * * * * * * * * * * * * * * //

dimensions      [0 0 0 1 0 0 0];

internalField   nonuniform List<scalar> 
427520
(
1.24954e-220
1.09166e-220
8.71278e-221
6.48975e-221
4.56664e-221
3.05963e-221
1.96256e-221
1.21011e-221
7.19532e-222
4.13629e-222
2.30374e-222
1.2454e-222
6.54518e-223
3.34879e-223
1.67017e-223
8.12921e-224
3.86566e-224
1.79777e-224
8.18467e-225
3.65122e-225
1.59754e-225
6.86179e-226
2.89597e-226
1.20205e-226
4.9117e-227
1.97764e-227
7.85425e-228
3.08014e-228
1.19406e-228
4.58144e-229
1.74199e-229
6.57296e-230
2.46486e-230
9.20111e-231
3.4249e-231
1.27354e-231
4.74013e-232
1.76956e-232
6.63995e-233
2.50992e-233
9.57998e-234
3.7017e-234
1.45255e-234
5.81298e-235
2.38763e-235
1.01653e-235
4.55135e-236
2.18268e-236
1.14088e-236
6.55356e-237
4.11049e-237
2.76417e-237
1.9503e-237
1.41762e-237
1.04812e-237
7.82188e-238
5.87058e-238
4.43257e-238
3.39023e-238
2.68511e-238
2.32618e-238
2.42779e-238
3.29564e-238
5.59747e-238
1.06825e-237
2.11518e-237
4.18294e-237
8.13315e-237
1.54448e-236
2.85477e-236
5.12408e-236
8.91254e-236
1.49884e-235
2.43077e-235
3.78955e-235
5.65607e-235
8.03796e-235
1.07913e-234
1.35209e-234
1.54763e-234
4.56136e-220
4.12616e-220
3.45689e-220
2.71949e-220
2.02697e-220
1.4405e-220
9.80689e-221
6.41946e-221
4.05231e-221
2.47293e-221
1.46195e-221
8.38797e-222
4.6782e-222
2.53994e-222
1.3442e-222
6.94255e-223
3.50336e-223
1.7291e-223
8.35542e-224
3.95684e-224
1.83812e-224
8.38385e-225
3.75797e-225
1.65688e-225
7.19198e-226
3.07619e-226
1.29772e-226
5.40446e-227
2.22398e-227
9.0519e-228
3.64758e-228
1.4567e-228
5.77162e-229
2.27126e-229
8.88739e-230
3.46211e-230
1.34435e-230
5.21025e-231
2.01824e-231
7.82495e-232
3.04117e-232
1.1867e-232
4.65728e-233
1.84173e-233
7.35467e-234
2.97364e-234
1.2215e-234
5.12201e-235
2.20732e-235
9.86813e-236
4.63215e-236
2.31334e-236
1.24245e-236
7.20477e-237
4.48907e-237
2.97217e-237
2.06761e-237
1.50589e-237
1.16666e-237
1.01296e-237
1.07613e-237
1.47538e-237
2.47447e-237
4.59163e-237
8.79078e-237
1.67948e-236
3.15697e-236
5.80262e-236
1.03953e-235
1.81118e-235
3.06321e-235
5.01927e-235
7.95107e-235
1.21466e-234
1.78416e-234
2.51054e-234
3.36827e-234
4.28159e-234
5.11052e-234
5.64954e-234
9.8091e-220
8.97559e-220
7.66039e-220
6.16908e-220
4.72401e-220
3.45858e-220
2.43087e-220
1.6455e-220
1.07557e-220
6.80334e-221
4.17215e-221
2.48461e-221
1.43895e-221
8.11508e-222
4.46197e-222
2.39462e-222
1.25569e-222
6.44024e-223
3.2338e-223
1.59119e-223
7.67928e-224
3.6383e-224
1.69369e-224
7.75354e-225
3.49358e-225
1.55068e-225
6.78615e-226
2.9306e-226
1.24997e-226
5.27044e-227
2.1988e-227
9.08502e-228
3.72118e-228
1.51244e-228
6.10603e-229
2.4512e-229
9.79516e-230
3.90075e-230
1.54988e-230
6.15176e-231
2.44235e-231
9.71211e-232
3.87387e-232
1.55231e-232
6.25989e-233
2.5455e-233
1.04625e-233
4.35969e-234
1.84907e-234
8.02465e-235
3.58847e-235
1.66808e-235
8.14047e-236
4.20967e-236
2.32123e-236
1.36689e-236
8.58309e-237
5.76193e-237
4.22527e-237
3.59254e-237
3.85884e-237
5.37595e-237
8.98306e-237
1.62975e-236
3.02133e-236
5.56779e-236
1.00819e-235
1.78452e-235
3.07903e-235
5.1687e-235
8.42726e-235
1.33222e-234
2.03811e-234
3.01082e-234
4.28369e-234
5.85101e-234
7.64083e-234
9.48791e-234
1.11169e-233
1.21492e-233
1.86743e-219
1.71758e-219
1.47899e-219
1.20541e-219
9.36703e-220
6.97642e-220
4.99929e-220
3.45724e-220
2.31278e-220
1.49961e-220
9.44012e-221
5.77778e-221
3.44256e-221
1.99912e-221
1.13264e-221
6.26728e-222
3.39004e-222
1.79416e-222
9.29887e-223
4.72366e-223
2.35382e-223
1.15151e-223
5.53501e-224
2.61623e-224
1.21701e-224
5.57603e-225
2.51838e-225
1.12213e-225
4.93681e-226
2.14635e-226
9.22948e-227
3.92875e-227
1.65698e-227
6.93054e-228
2.87744e-228
1.18702e-228
4.8702e-229
1.98941e-229
8.09933e-230
3.29003e-230
1.33497e-230
5.41728e-231
2.20126e-231
8.96839e-232
3.66875e-232
1.5092e-232
6.25382e-233
2.61558e-233
1.10677e-233
4.7524e-234
2.07889e-234
9.31148e-235
4.29827e-235
2.06095e-235
1.03537e-235
5.49654e-236
3.10975e-236
1.89911e-236
1.29093e-236
1.04518e-236
1.09791e-236
1.5105e-236
2.47833e-236
4.38429e-236
7.89804e-236
1.41282e-235
2.48336e-235
4.2692e-235
7.16008e-235
1.1695e-234
1.85756e-234
2.86467e-234
4.28212e-234
6.19202e-234
8.64081e-234
1.16017e-233
1.49298e-233
1.83183e-233
2.12735e-233
2.31295e-233
3.39949e-219
3.13456e-219
2.71126e-219
2.22365e-219
1.7419e-219
1.31011e-219
9.49736e-220
6.65589e-220
4.52e-220
2.98006e-220
1.91051e-220
1.19258e-220
7.25677e-221
4.30882e-221
2.49885e-221
1.41664e-221
7.85736e-222
4.26705e-222
2.27061e-222
1.18481e-222
6.06692e-223
3.05084e-223
1.50772e-223
7.32817e-224
3.50562e-224
1.65179e-224
7.67181e-225
3.51498e-225
1.5899e-225
7.10531e-226
3.13986e-226
1.37312e-226
5.94759e-227
2.55377e-227
1.08795e-227
4.60274e-228
1.93555e-228
8.09822e-229
3.37439e-229
1.40173e-229
5.81101e-230
2.40674e-230
9.9699e-231
4.13567e-231
1.72002e-231
7.18161e-232
3.01456e-232
1.27411e-232
5.43162e-233
2.34026e-233
1.02157e-233
4.53159e-234
2.05052e-234
9.51033e-235
4.54832e-235
2.25967e-235
1.17773e-235
6.54638e-236
4.02275e-236
2.94998e-236
2.85737e-236
3.72712e-236
5.90707e-236
1.01655e-235
1.78537e-235
3.11707e-235
5.3527e-235
8.99951e-235
1.47792e-234
2.36689e-234
3.69143e-234
5.59862e-234
8.24398e-234
1.17633e-233
1.62267e-233
2.15747e-233
2.75414e-233
3.35808e-233
3.88237e-233
4.2105e-233
6.06977e-219
5.60385e-219
4.85835e-219
3.99791e-219
3.14558e-219
2.37898e-219
1.73632e-219
1.22672e-219
8.40985e-220
5.60535e-220
3.63812e-220
2.3024e-220
1.42233e-220
8.5852e-221
5.06762e-221
2.92748e-221
1.65627e-221
9.18357e-222
4.99364e-222
2.66459e-222
1.39613e-222
7.18754e-223
3.63813e-223
1.81176e-223
8.88252e-224
4.29022e-224
2.04282e-224
9.59609e-225
4.45022e-225
2.03898e-225
9.23658e-226
4.14011e-226
1.83762e-226
8.08332e-227
3.52675e-227
1.52748e-227
6.57316e-228
2.81291e-228
1.19817e-228
5.08488e-229
2.15211e-229
9.09302e-230
3.83947e-230
1.62191e-230
6.86225e-231
2.91145e-231
1.24022e-231
5.31151e-232
2.29032e-232
9.95938e-233
4.37539e-233
1.94613e-233
8.78614e-234
4.03876e-234
1.89759e-234
9.15872e-235
4.57361e-235
2.39372e-235
1.35232e-235
8.83562e-236
7.48544e-236
8.7609e-236
1.30243e-235
2.1607e-235
3.70024e-235
6.32819e-235
1.06696e-234
1.76422e-234
2.85351e-234
4.50736e-234
6.94354e-234
1.04168e-233
1.51942e-233
2.15058e-233
2.94656e-233
3.89604e-233
4.9517e-233
6.01741e-233
6.94077e-233
7.51784e-233
1.07397e-218
9.92182e-219
8.61237e-219
7.09974e-219
5.5996e-219
4.24815e-219
3.1127e-219
2.20975e-219
1.52375e-219
1.02265e-219
6.69122e-220
4.27405e-220
2.66825e-220
1.62962e-220
9.74501e-221
5.70993e-221
3.28034e-221
1.84888e-221
1.02295e-221
5.55893e-222
2.96866e-222
1.55884e-222
8.05291e-223
4.09507e-223
2.05106e-223
1.01242e-223
4.92811e-224
2.36705e-224
1.1226e-224
5.26044e-225
2.43726e-225
1.1173e-225
5.07156e-226
2.28111e-226
1.01746e-226
4.50404e-227
1.9804e-227
8.65634e-228
3.76465e-228
1.63047e-228
7.03878e-229
3.03175e-229
1.30416e-229
5.60855e-230
2.41387e-230
1.04089e-230
4.50214e-231
1.95564e-231
8.54238e-232
3.75742e-232
1.6668e-232
7.46962e-233
3.3882e-233
1.55911e-233
7.29779e-234
3.48657e-234
1.70846e-234
8.66133e-235
4.63564e-235
2.75699e-235
2.02447e-235
2.04475e-235
2.76115e-235
4.35915e-235
7.26456e-235
1.21983e-234
2.02716e-234
3.31088e-234
5.29797e-234
8.29057e-234
1.26684e-233
1.88743e-233
2.73706e-233
3.85539e-233
5.2617e-233
6.93555e-233
8.79357e-233
1.0667e-232
1.22889e-232
1.33019e-232
1.89181e-218
1.74835e-218
1.51859e-218
1.25308e-218
9.89613e-219
7.52079e-219
5.52297e-219
3.93193e-219
2.7208e-219
1.83387e-219
1.20609e-219
7.751e-220
4.87338e-220
3.00082e-220
1.81118e-220
1.0723e-220
6.23147e-221
3.5566e-221
1.99471e-221
1.09988e-221
5.96533e-222
3.1839e-222
1.67311e-222
8.66046e-223
4.41799e-223
2.22229e-223
1.10281e-223
5.40215e-224
2.61366e-224
1.24971e-224
5.90908e-225
2.76477e-225
1.28092e-225
5.88038e-226
2.67685e-226
1.2092e-226
5.4245e-227
2.41854e-227
1.07259e-227
4.73547e-228
2.08316e-228
9.13911e-229
4.00229e-229
1.75129e-229
7.66446e-230
3.35842e-230
1.47498e-230
6.50022e-231
2.87791e-231
1.28169e-231
5.7495e-232
2.60169e-232
1.18949e-232
5.50459e-233
2.58378e-233
1.23323e-233
6.00575e-234
3.00148e-234
1.55955e-234
8.71703e-235
5.68528e-235
4.89507e-235
5.81446e-235
8.56726e-235
1.38106e-234
2.27733e-234
3.73925e-234
6.05131e-234
9.61076e-234
1.49458e-233
2.27193e-233
3.37032e-233
4.8703e-233
6.84084e-233
9.31524e-233
1.22572e-232
1.55204e-232
1.88089e-232
2.16546e-232
2.34315e-232
3.325e-218
3.07341e-218
2.67044e-218
2.20468e-218
1.7424e-218
1.32546e-218
9.74599e-219
6.94975e-219
4.81905e-219
3.25657e-219
2.14863e-219
1.38622e-219
8.75656e-220
5.42173e-220
3.29344e-220
1.96431e-220
1.15111e-220
6.63177e-221
3.75815e-221
2.09586e-221
1.15076e-221
6.22344e-222
3.31651e-222
1.74228e-222
9.02669e-223
4.6143e-223
2.32836e-223
1.16031e-223
5.71337e-224
2.78125e-224
1.33924e-224
6.38259e-225
3.01247e-225
1.409e-225
6.53507e-226
3.0077e-226
1.3746e-226
6.24298e-227
2.81979e-227
1.26764e-227
5.67653e-228
2.53424e-228
1.12895e-228
5.0229e-229
2.2341e-229
9.94358e-230
4.43323e-230
1.98197e-230
8.89524e-231
4.01247e-231
1.82137e-231
8.3309e-232
3.84513e-232
1.79362e-232
8.47046e-233
4.05799e-233
1.97723e-233
9.83764e-234
5.04052e-234
2.71827e-234
1.63249e-234
1.21902e-234
1.24821e-234
1.67553e-234
2.58406e-234
4.17361e-234
6.77613e-234
1.08861e-233
1.71971e-233
2.6632e-233
4.03494e-233
5.96983e-233
8.60862e-233
1.20718e-232
1.64173e-232
2.15813e-232
2.73069e-232
3.30755e-232
3.80665e-232
4.11825e-232
5.83718e-218
5.39603e-218
4.68941e-218
3.87261e-218
3.0618e-218
2.33039e-218
1.71474e-218
1.22391e-218
8.49705e-219
5.75097e-219
3.80183e-219
2.4588e-219
1.55785e-219
9.68066e-220
5.90606e-220
3.54059e-220
2.08717e-220
1.21066e-220
6.91365e-221
3.88892e-221
2.15566e-221
1.17798e-221
6.34854e-222
3.3756e-222
1.77148e-222
9.17898e-223
4.69789e-223
2.37598e-223
1.18797e-223
5.87476e-224
2.87483e-224
1.39282e-224
6.68463e-225
3.17985e-225
1.50018e-225
7.02365e-226
3.26549e-226
1.50868e-226
6.93141e-227
3.16914e-227
1.44308e-227
6.54969e-228
2.96544e-228
1.34051e-228
6.05558e-229
2.7362e-229
1.23785e-229
5.61246e-230
2.55307e-230
1.16647e-230
5.35913e-231
2.47887e-231
1.1559e-231
5.44127e-232
2.58978e-232
1.24839e-232
6.10756e-233
3.04165e-233
1.55081e-233
8.20973e-234
4.68488e-234
3.13833e-234
2.77347e-234
3.31782e-234
4.82003e-234
7.58148e-234
1.21589e-233
1.94055e-233
3.05289e-233
4.71413e-233
7.12686e-233
1.05272e-232
1.51613e-232
2.12402e-232
2.8865e-232
3.79237e-232
4.79658e-232
5.80821e-232
6.68339e-232
7.22976e-232
1.02413e-217
9.46776e-218
8.22876e-218
6.79652e-218
5.37469e-218
4.09199e-218
3.01217e-218
2.15111e-218
1.49447e-218
1.01241e-218
6.70069e-219
4.3401e-219
2.75498e-219
1.71598e-219
1.04989e-219
6.31565e-220
3.73834e-220
2.17886e-220
1.25121e-220
7.08289e-221
3.95436e-221
2.17826e-221
1.18434e-221
6.35826e-222
3.37167e-222
1.76666e-222
9.1498e-223
4.68581e-223
2.37376e-223
1.18999e-223
5.90601e-224
2.90325e-224
1.41425e-224
6.83029e-225
3.27237e-225
1.55611e-225
7.34915e-226
3.44925e-226
1.60987e-226
7.47716e-227
3.45838e-227
1.59414e-227
7.32893e-228
3.36329e-228
1.54195e-228
7.06865e-229
3.24315e-229
1.49065e-229
6.87063e-230
3.17896e-230
1.47815e-230
6.91503e-231
3.2587e-231
1.54894e-231
7.43647e-232
3.61169e-232
1.77763e-232
8.88764e-233
4.53243e-233
2.37991e-233
1.31903e-233
8.20553e-234
6.38833e-234
6.73222e-234
9.05549e-234
1.37499e-233
2.17204e-233
3.44247e-233
5.39586e-233
8.31352e-233
1.25498e-232
1.85179e-232
2.66492e-232
3.73128e-232
5.06862e-232
6.65723e-232
8.41816e-232
1.0192e-231
1.17265e-231
1.26845e-231
1.79624e-217
1.66063e-217
1.44339e-217
1.19226e-217
9.42953e-218
7.1803e-218
5.2867e-218
3.77658e-218
2.62481e-218
1.7791e-218
1.17833e-218
7.63908e-219
4.85473e-219
3.02829e-219
1.85622e-219
1.11915e-219
6.64272e-220
3.88449e-220
2.23943e-220
1.27352e-220
7.14768e-221
3.96103e-221
2.16826e-221
1.17284e-221
6.27102e-222
3.31556e-222
1.73396e-222
8.97284e-223
4.59595e-223
2.33095e-223
1.17103e-223
5.82978e-224
2.87722e-224
1.40841e-224
6.84113e-225
3.2991e-225
1.58041e-225
7.52487e-226
3.56326e-226
1.67917e-226
7.88005e-227
3.68517e-227
1.71869e-227
7.99992e-228
3.71934e-228
1.72864e-228
8.03853e-229
3.74352e-229
1.74754e-229
8.18561e-230
3.85126e-230
1.82204e-230
8.67791e-231
4.16587e-231
2.01835e-231
9.88321e-232
4.89895e-232
2.46308e-232
1.26006e-232
6.6024e-233
3.60342e-233
2.13898e-233
1.51056e-233
1.40666e-233
1.72661e-233
2.5036e-233
3.87767e-233
6.09449e-233
9.516e-233
1.46323e-232
2.20629e-232
3.25309e-232
4.67917e-232
6.54922e-232
8.89428e-232
1.16798e-231
1.47674e-231
1.78775e-231
2.0568e-231
2.22475e-231
3.14996e-217
2.91218e-217
2.53129e-217
2.09098e-217
1.65385e-217
1.25947e-217
9.2744e-218
6.62633e-218
4.60652e-218
3.12327e-218
2.06945e-218
1.34235e-218
8.53679e-219
5.32996e-219
3.27085e-219
1.97494e-219
1.17437e-219
6.88272e-220
3.97865e-220
2.26989e-220
1.27882e-220
7.11814e-221
3.91622e-221
2.13051e-221
1.1465e-221
6.10497e-222
3.21779e-222
1.67931e-222
8.68048e-223
4.44565e-223
2.25659e-223
1.13567e-223
5.66894e-224
2.80785e-224
1.38056e-224
6.7414e-225
3.27092e-225
1.57777e-225
7.57026e-226
3.61516e-226
1.71935e-226
8.14897e-227
3.85161e-227
1.81675e-227
8.55834e-228
4.02966e-228
1.89797e-228
8.95014e-229
4.22942e-229
2.00472e-229
9.5407e-230
4.56364e-230
2.19646e-230
1.06493e-230
5.20752e-231
2.57178e-231
1.28458e-231
6.50093e-232
3.34182e-232
1.75348e-232
9.50279e-233
5.48409e-233
3.61344e-233
3.01871e-233
3.35576e-233
4.59557e-233
6.93772e-233
1.07883e-232
1.67685e-232
2.57302e-232
3.87549e-232
5.71081e-232
8.21126e-232
1.14901e-231
1.56018e-231
2.04857e-231
2.58991e-231
3.13519e-231
3.60689e-231
3.90136e-231
5.52337e-217
5.10647e-217
4.43866e-217
3.66666e-217
2.90024e-217
2.20876e-217
1.62658e-217
1.16226e-217
8.08092e-218
5.47992e-218
3.63182e-218
2.35653e-218
1.4993e-218
9.3661e-219
5.75188e-219
3.47622e-219
2.06951e-219
1.21469e-219
7.03444e-220
4.02217e-220
2.27207e-220
1.26867e-220
7.00576e-221
3.8276e-221
2.06983e-221
1.10824e-221
5.87726e-222
3.08811e-222
1.60814e-222
8.30232e-223
4.25068e-223
2.15895e-223
1.08818e-223
5.44493e-224
2.70572e-224
1.33584e-224
6.5554e-225
3.19907e-225
1.55326e-225
7.50757e-226
3.61438e-226
1.73425e-226
8.29867e-227
3.96294e-227
1.88993e-227
9.00781e-228
4.29412e-228
2.04911e-228
9.79647e-229
4.69651e-229
2.25993e-229
1.09259e-229
5.31274e-230
2.60109e-230
1.28373e-230
6.39471e-231
3.21948e-231
1.64082e-231
8.48364e-232
4.46683e-232
2.41575e-232
1.37187e-232
8.62564e-233
6.60082e-233
6.65262e-233
8.52651e-233
1.24644e-232
1.912e-232
2.95508e-232
4.52325e-232
6.80514e-232
1.0022e-231
1.44055e-231
2.01539e-231
2.73625e-231
3.59251e-231
4.54158e-231
5.49757e-231
6.32456e-231
6.84082e-231
9.68463e-217
8.95368e-217
7.7828e-217
6.42926e-217
5.08549e-217
3.8731e-217
2.85235e-217
2.03824e-217
1.41724e-217
9.61174e-218
6.37107e-218
4.13468e-218
2.63128e-218
1.64431e-218
1.01025e-218
6.10911e-219
3.63969e-219
2.13833e-219
1.23983e-219
7.09972e-220
4.01788e-220
2.24847e-220
1.24491e-220
6.82279e-221
3.7029e-221
1.99091e-221
1.06082e-221
5.60357e-222
2.93531e-222
1.52526e-222
7.86445e-223
4.02495e-223
2.04531e-223
1.03231e-223
5.17681e-224
2.58038e-224
1.27893e-224
6.30576e-225
3.09425e-225
1.51187e-225
7.35942e-226
3.57093e-226
1.72817e-226
8.34705e-227
4.0263e-227
1.94093e-227
9.3576e-228
4.5155e-228
2.18267e-228
1.05775e-228
5.1438e-229
2.51246e-229
1.23386e-229
6.09866e-230
3.03734e-230
1.52602e-230
7.74446e-231
3.97583e-231
2.06868e-231
1.09429e-231
5.92367e-232
3.33557e-232
2.03411e-232
1.45603e-232
1.3416e-232
1.60075e-232
2.25162e-232
3.39568e-232
5.2111e-232
7.95258e-232
1.19486e-231
1.75857e-231
2.52691e-231
3.53463e-231
4.79838e-231
6.2995e-231
7.96338e-231
9.63938e-231
1.10892e-230
1.19943e-230
1.69805e-216
1.56989e-216
1.3646e-216
1.12729e-216
8.91684e-217
6.79117e-217
5.00147e-217
3.57407e-217
2.48525e-217
1.6856e-217
1.11737e-217
7.2523e-218
4.616e-218
2.88516e-218
1.77309e-218
1.0726e-218
6.39331e-219
3.75839e-219
2.18086e-219
1.25007e-219
7.08316e-220
3.96987e-220
2.20207e-220
1.20954e-220
6.58176e-221
3.54967e-221
1.89813e-221
1.00673e-221
5.29784e-222
2.76705e-222
1.43484e-222
7.3891e-223
3.7802e-223
1.92181e-223
9.71224e-224
4.88083e-224
2.44001e-224
1.2139e-224
6.01246e-225
2.96614e-225
1.45818e-225
7.14715e-226
3.49458e-226
1.70549e-226
8.31316e-227
4.04975e-227
1.97304e-227
9.6207e-228
4.69869e-228
2.30038e-228
1.12991e-228
5.57325e-229
2.76313e-229
1.37836e-229
6.92551e-230
3.50885e-230
1.79487e-230
9.28231e-231
4.86159e-231
2.58544e-231
1.40341e-231
7.87333e-232
4.70921e-232
3.21001e-232
2.73838e-232
3.03932e-232
4.09224e-232
6.04656e-232
9.19886e-232
1.39869e-231
2.09814e-231
3.08574e-231
4.43235e-231
6.19877e-231
8.41415e-231
1.10457e-230
1.39627e-230
1.69009e-230
1.94426e-230
2.10294e-230
2.97722e-216
2.75253e-216
2.3926e-216
1.97651e-216
1.56343e-216
1.19074e-216
8.76949e-217
6.26682e-217
4.35777e-217
2.95571e-217
1.95941e-217
1.27184e-217
8.09579e-218
5.06076e-218
3.11062e-218
1.88212e-218
1.12218e-218
6.59941e-219
3.83131e-219
2.19753e-219
1.24618e-219
6.99156e-220
3.88312e-220
2.1362e-220
1.16461e-220
6.29499e-221
3.37501e-221
1.79551e-221
9.4819e-222
4.97213e-222
2.58983e-222
1.34035e-222
6.89467e-223
3.52611e-223
1.7935e-223
9.07548e-224
4.57037e-224
2.29141e-224
1.14418e-224
5.69248e-225
2.82305e-225
1.39621e-225
6.88997e-226
3.39432e-226
1.67034e-226
8.21569e-227
4.04155e-227
1.98984e-227
9.81226e-228
4.84995e-228
2.40478e-228
1.19718e-228
5.98938e-229
3.01412e-229
1.52736e-229
7.80175e-230
4.02184e-230
2.09509e-230
1.10462e-230
5.9081e-231
3.21929e-231
1.80482e-231
1.06678e-231
7.02232e-232
5.6237e-232
5.82532e-232
7.48262e-232
1.0798e-231
1.62582e-231
2.46122e-231
3.68499e-231
5.41485e-231
7.77465e-231
1.08708e-230
1.47542e-230
1.93674e-230
2.44809e-230
2.96318e-230
3.40877e-230
3.68694e-230
5.21999e-216
4.82603e-216
4.19496e-216
3.46545e-216
2.74119e-216
2.08775e-216
1.53759e-216
1.0988e-216
7.64083e-217
5.18258e-217
3.43575e-217
2.2302e-217
1.41969e-217
8.87524e-218
5.45574e-218
3.30149e-218
1.96881e-218
1.15811e-218
6.72555e-219
3.85917e-219
2.18963e-219
1.2293e-219
6.83342e-220
3.76324e-220
2.05432e-220
1.11217e-220
5.97416e-221
3.18542e-221
1.68661e-221
8.87108e-222
4.63667e-222
2.40905e-222
1.24461e-222
6.39597e-223
3.27039e-223
1.66438e-223
8.43344e-224
4.25606e-224
2.14002e-224
1.07252e-224
5.3597e-225
2.67189e-225
1.32937e-225
6.60439e-226
3.27806e-226
1.62647e-226
8.07204e-227
4.00968e-227
1.99492e-227
9.94825e-228
4.97633e-228
2.49901e-228
1.26096e-228
6.39893e-229
3.26897e-229
1.68292e-229
8.74083e-230
4.58581e-230
2.43384e-230
1.30939e-230
7.16665e-231
4.02269e-231
2.36149e-231
1.51696e-231
1.15542e-231
1.12397e-231
1.37561e-231
1.93381e-231
2.87723e-231
4.33334e-231
6.4735e-231
9.50282e-231
1.36377e-230
1.90641e-230
2.58711e-230
3.39578e-230
4.29218e-230
5.19514e-230
5.97627e-230
6.46391e-230
9.15219e-216
8.46148e-216
7.35503e-216
6.07598e-216
4.80615e-216
3.66048e-216
2.69588e-216
1.92655e-216
1.3397e-216
9.08692e-217
6.0242e-217
3.91048e-217
2.48939e-217
1.55632e-217
9.56744e-218
5.79011e-218
3.45324e-218
2.03159e-218
1.18005e-218
6.77296e-219
3.84418e-219
2.15916e-219
1.20091e-219
6.6183e-220
3.61611e-220
1.95987e-220
1.05419e-220
5.63006e-221
2.98673e-221
1.57449e-221
8.25104e-222
4.29985e-222
2.22905e-222
1.14988e-222
5.90454e-223
3.01899e-223
1.53752e-223
7.80201e-224
3.9461e-224
1.99006e-224
1.00107e-224
5.02509e-225
2.51822e-225
1.26042e-225
6.30418e-226
3.15256e-226
1.57713e-226
7.89782e-227
3.96153e-227
1.99174e-227
1.00447e-227
5.0853e-228
2.58658e-228
1.32296e-228
6.81065e-229
3.5325e-229
1.84797e-229
9.76203e-230
5.21458e-230
2.82189e-230
1.55191e-230
8.73193e-231
5.10819e-231
3.22646e-231
2.36372e-231
2.17625e-231
2.53982e-231
3.47224e-231
5.09823e-231
7.63377e-231
1.13749e-230
1.66787e-230
2.3923e-230
3.34329e-230
4.5364e-230
5.9539e-230
7.52523e-230
9.10808e-230
1.04774e-229
1.13322e-229
1.60465e-215
1.48355e-215
1.28955e-215
1.0653e-215
8.42662e-216
6.41792e-216
4.7267e-216
3.37784e-216
2.34892e-216
1.59323e-216
1.05625e-216
6.85649e-217
4.36488e-217
2.7289e-217
1.67765e-217
1.01534e-217
6.05592e-218
3.5631e-218
2.06988e-218
1.18821e-218
6.74549e-219
3.78982e-219
2.10865e-219
1.16265e-219
6.35634e-220
3.44765e-220
1.85619e-220
9.92468e-221
5.27233e-221
2.78398e-221
1.46178e-221
7.63505e-222
3.96839e-222
2.05323e-222
1.05786e-222
5.42907e-223
2.77635e-223
1.4152e-223
7.19287e-224
3.64654e-224
1.84465e-224
9.3147e-225
4.69707e-225
2.36634e-225
1.19158e-225
6.00048e-226
3.02339e-226
1.5251e-226
7.70667e-227
3.90372e-227
1.98353e-227
1.01173e-227
5.18447e-228
2.67127e-228
1.38514e-228
7.23519e-229
3.81094e-229
2.02643e-229
1.08923e-229
5.92844e-230
3.27648e-230
1.84931e-230
1.0805e-230
6.74704e-231
4.79814e-231
4.21543e-231
4.70285e-231
6.2477e-231
9.0436e-231
1.34548e-230
1.99921e-230
2.92764e-230
4.19669e-230
5.86322e-230
7.95435e-230
1.0439e-229
1.31933e-229
1.59679e-229
1.83681e-229
1.98666e-229
2.81342e-215
2.60109e-215
2.26097e-215
1.86778e-215
1.47744e-215
1.12525e-215
8.28732e-216
5.92237e-216
4.11837e-216
2.79344e-216
1.85194e-216
1.20217e-216
7.65315e-217
4.78478e-217
2.9416e-217
1.78036e-217
1.06192e-217
6.24832e-218
3.63005e-218
2.08404e-218
1.18327e-218
6.64918e-219
3.70049e-219
2.04098e-219
1.11628e-219
6.05774e-220
3.26355e-220
1.74635e-220
9.28636e-221
4.90938e-221
2.58143e-221
1.35059e-221
7.03367e-222
3.64749e-222
1.88414e-222
9.69812e-223
4.97583e-223
2.54561e-223
1.29901e-223
6.61426e-224
3.36164e-224
1.70603e-224
8.6489e-225
4.38179e-225
2.2195e-225
1.12454e-225
5.70204e-226
2.89507e-226
1.47269e-226
7.51021e-227
3.84213e-227
1.97322e-227
1.01809e-227
5.28149e-228
2.75711e-228
1.4497e-228
7.68528e-229
4.11214e-229
2.22354e-229
1.21699e-229
6.75916e-230
3.82856e-230
2.23746e-230
1.38663e-230
9.64178e-231
8.14655e-231
8.71969e-231
1.12584e-230
1.60561e-230
2.37248e-230
3.51441e-230
5.13933e-230
7.36226e-230
1.02825e-229
1.39474e-229
1.83023e-229
2.31301e-229
2.79935e-229
3.22009e-229
3.48275e-229
4.93274e-215
4.56047e-215
3.96414e-215
3.27477e-215
2.59038e-215
1.9729e-215
1.45301e-215
1.03837e-215
7.22073e-216
4.89774e-216
3.24702e-216
2.10778e-216
1.34184e-216
8.38934e-217
5.15768e-217
3.12165e-217
1.862e-217
1.09563e-217
6.36551e-218
3.65471e-218
2.07524e-218
1.16628e-218
6.49172e-219
3.58119e-219
1.95918e-219
1.06356e-219
5.73233e-220
3.06911e-220
1.63314e-220
8.64114e-221
4.54831e-221
2.38258e-221
1.24262e-221
6.45497e-222
3.34099e-222
1.7236e-222
8.86615e-223
4.54903e-223
2.32884e-223
1.19e-223
6.07154e-224
3.09423e-224
1.57571e-224
8.02133e-225
4.08362e-225
2.08003e-225
1.06055e-225
5.4156e-226
2.77115e-226
1.42175e-226
7.31831e-227
3.78191e-227
1.96353e-227
1.02499e-227
5.38409e-228
2.8484e-228
1.51913e-228
8.17615e-229
4.44608e-229
2.44646e-229
1.36533e-229
7.76265e-230
4.54215e-230
2.80142e-230
1.91538e-230
1.56736e-230
1.61647e-230
2.03039e-230
2.85229e-230
4.18465e-230
6.17885e-230
9.02236e-230
1.29158e-229
1.80326e-229
2.44554e-229
3.20881e-229
4.055e-229
4.90746e-229
5.64493e-229
6.10534e-229
8.64853e-215
7.99583e-215
6.95028e-215
5.74162e-215
4.54168e-215
3.45906e-215
2.54755e-215
1.82056e-215
1.26601e-215
8.58719e-216
5.693e-216
3.69558e-216
2.35267e-216
1.47092e-216
9.0431e-217
5.47334e-217
3.26478e-217
1.92108e-217
1.11616e-217
6.4086e-218
3.63916e-218
2.04534e-218
1.13858e-218
6.28187e-219
3.43725e-219
1.86636e-219
1.00622e-219
5.38932e-220
2.86913e-220
1.51898e-220
8.00103e-221
4.19494e-221
2.19018e-221
1.13916e-221
5.90487e-222
3.05157e-222
1.57284e-222
8.08822e-223
4.15126e-223
2.12728e-223
1.08878e-223
5.56784e-224
2.84598e-224
1.4546e-224
7.43711e-225
3.80541e-225
1.94956e-225
1.00051e-225
5.14616e-226
2.6544e-226
1.37382e-226
7.13923e-227
3.72758e-227
1.95693e-227
1.0338e-227
5.50015e-228
2.94978e-228
1.59629e-228
8.72652e-229
4.82611e-229
2.7059e-229
1.54432e-229
9.05301e-230
5.56768e-230
3.75924e-230
2.99739e-230
2.99213e-230
3.66202e-230
5.06834e-230
7.38227e-230
1.08642e-229
1.58397e-229
2.26586e-229
3.16238e-229
4.28794e-229
5.62565e-229
7.10877e-229
8.6029e-229
9.89551e-229
1.07025e-228
1.51634e-214
1.4019e-214
1.21859e-214
1.00667e-214
7.96289e-215
6.06474e-215
4.4666e-215
3.19198e-215
2.21968e-215
1.50559e-215
9.98151e-216
6.47945e-216
4.12493e-216
2.57897e-216
1.58554e-216
9.59652e-217
5.72425e-217
3.36835e-217
1.95706e-217
1.1237e-217
6.3812e-218
3.58663e-218
1.9967e-218
1.10172e-218
6.02895e-219
3.27408e-219
1.7655e-219
9.45842e-220
5.037e-220
2.66778e-220
1.40593e-220
7.37587e-221
3.85387e-221
2.00632e-221
1.04113e-221
5.3874e-222
2.78097e-222
1.43258e-222
7.36732e-223
3.78379e-223
1.94148e-223
9.95606e-224
5.10454e-224
2.61765e-224
1.34316e-224
6.89904e-225
3.54888e-225
1.82911e-225
9.45045e-226
4.89738e-226
2.54695e-226
1.33012e-226
6.98001e-227
3.68318e-227
1.95576e-227
1.0459e-227
5.63797e-228
3.06644e-228
1.68461e-228
9.36073e-229
5.27157e-229
3.01993e-229
1.77426e-229
1.0896e-229
7.28901e-230
5.69184e-230
5.52407e-230
6.60105e-230
9.00573e-230
1.30236e-229
1.91026e-229
2.7808e-229
3.975e-229
5.54574e-229
7.51816e-229
9.86256e-229
1.24619e-228
1.50807e-228
1.73463e-228
1.87607e-228
2.65858e-214
2.45794e-214
2.13654e-214
1.76499e-214
1.39613e-214
1.06333e-214
7.83125e-215
5.59646e-215
3.89174e-215
2.63973e-215
1.75005e-215
1.13604e-215
7.23223e-216
4.5217e-216
2.77993e-216
1.68257e-216
1.00364e-216
5.90582e-217
3.4314e-217
1.97026e-217
1.11888e-217
6.28898e-218
3.50124e-218
1.93198e-218
1.05731e-218
5.74239e-219
3.09689e-219
1.65938e-219
8.83879e-220
4.68262e-220
2.46861e-220
1.29566e-220
6.77344e-221
3.52857e-221
1.83252e-221
9.49154e-222
4.90504e-222
2.5301e-222
1.30313e-222
6.70444e-223
3.44687e-223
1.7715e-223
9.10494e-224
4.68172e-224
2.40936e-224
1.2415e-224
6.4082e-225
3.31486e-225
1.71929e-225
8.94561e-226
4.67187e-226
2.45044e-226
1.29165e-226
6.84679e-227
3.65244e-227
1.96233e-227
1.06272e-227
5.80669e-228
3.20448e-228
1.78844e-228
1.01135e-228
5.81476e-229
3.42456e-229
2.10205e-229
1.3967e-229
1.07264e-229
1.01634e-229
1.18853e-229
1.59965e-229
2.29735e-229
3.35864e-229
4.88178e-229
6.97313e-229
9.72504e-229
1.31814e-228
1.729e-228
2.18456e-228
2.64353e-228
3.04061e-228
3.28852e-228
4.66126e-214
4.30948e-214
3.74597e-214
3.09454e-214
2.44781e-214
1.86432e-214
1.37305e-214
9.81223e-215
6.82336e-215
4.62822e-215
3.06835e-215
1.99181e-215
1.26802e-215
7.92787e-216
4.87404e-216
2.95004e-216
1.75969e-216
1.03547e-216
6.01635e-217
3.45453e-217
1.9618e-217
1.1027e-217
6.13916e-218
3.3877e-218
1.85406e-218
1.00702e-218
5.43134e-219
2.91055e-219
1.55054e-219
8.21594e-220
4.33234e-220
2.27453e-220
1.18952e-220
6.19959e-221
3.22151e-221
1.66974e-221
8.63601e-222
4.45896e-222
2.29923e-222
1.1845e-222
6.09903e-223
3.13999e-223
1.61701e-223
8.33263e-224
4.2985e-224
2.22075e-224
1.14952e-224
5.96444e-225
3.10358e-225
1.62038e-225
8.49306e-226
4.47149e-226
2.36616e-226
1.25928e-226
6.74517e-227
3.63898e-227
1.97896e-227
1.08581e-227
6.01689e-228
3.3716e-228
1.91395e-228
1.10421e-228
6.51936e-229
4.00243e-229
2.64643e-229
2.00573e-229
1.86242e-229
2.13651e-229
2.83971e-229
4.05152e-229
5.90455e-229
8.56952e-229
1.2232e-228
1.70532e-228
2.31098e-228
3.03099e-228
3.82939e-228
4.63378e-228
5.32971e-228
5.76419e-228
8.17255e-214
7.55577e-214
6.56776e-214
5.42562e-214
4.29173e-214
3.26869e-214
2.40735e-214
1.72037e-214
1.19633e-214
8.11461e-215
5.37971e-215
3.49222e-215
2.22321e-215
1.38999e-215
8.54563e-216
5.1723e-216
3.08526e-216
1.8155e-216
1.05485e-216
6.05689e-217
3.43968e-217
1.93342e-217
1.07642e-217
5.94001e-218
3.25102e-218
1.76584e-218
9.52445e-219
5.10432e-219
2.71947e-219
1.44116e-219
7.60057e-220
3.9912e-220
2.08783e-220
1.0885e-220
5.65845e-221
2.93427e-221
1.51854e-221
7.84618e-222
4.04929e-222
2.08817e-222
1.07646e-222
5.54939e-223
2.86213e-223
1.47742e-223
7.63604e-224
3.95338e-224
2.05112e-224
1.06693e-224
5.56677e-225
2.91482e-225
1.53246e-225
8.09421e-226
4.2976e-226
2.29518e-226
1.23379e-226
6.68058e-227
3.64653e-227
2.00823e-227
1.11698e-227
6.28194e-228
3.57861e-228
2.07124e-228
1.22589e-228
7.53082e-229
4.96219e-229
3.72181e-229
3.39808e-229
3.83316e-229
5.03702e-229
7.14265e-229
1.03786e-228
1.50416e-228
2.14556e-228
2.99022e-228
4.05149e-228
5.31326e-228
6.71246e-228
8.12219e-228
9.34186e-228
1.01033e-227
1.43288e-213
1.32474e-213
1.15152e-213
9.51269e-214
7.52464e-214
5.73096e-214
4.22078e-214
3.0163e-214
2.09752e-214
1.42273e-214
9.43219e-215
6.12287e-215
3.89794e-215
2.43705e-215
1.4983e-215
9.06856e-216
5.40938e-216
3.18311e-216
1.84947e-216
1.06196e-216
6.03084e-217
3.38991e-217
1.88734e-217
1.0415e-217
5.7003e-218
3.09627e-218
1.6701e-218
8.95077e-219
4.76906e-219
2.52752e-219
1.33313e-219
7.00148e-220
3.66317e-220
1.91023e-220
9.93293e-221
5.15266e-221
2.66774e-221
1.37912e-221
7.12185e-222
3.67538e-222
1.89632e-222
9.78595e-223
5.05306e-223
2.61185e-223
1.35197e-223
7.01128e-224
3.64443e-224
1.89959e-224
9.93329e-225
5.21366e-225
2.7481e-225
1.45546e-225
7.74986e-226
4.15129e-226
2.23848e-226
1.21594e-226
6.65871e-227
3.67922e-227
2.05315e-227
1.1585e-227
6.62064e-228
3.84323e-228
2.28004e-228
1.40194e-228
9.21548e-229
6.85551e-229
6.17244e-229
6.8623e-229
8.92606e-229
1.25868e-228
1.82389e-228
2.63989e-228
3.76316e-228
5.24296e-228
7.10257e-228
9.3137e-228
1.17658e-227
1.42364e-227
1.63739e-227
1.77084e-227
2.51226e-213
2.32266e-213
2.01895e-213
1.66785e-213
1.31929e-213
1.0048e-213
7.40025e-214
5.28845e-214
3.67756e-214
2.49445e-214
1.65374e-214
1.07352e-214
6.83422e-215
4.27286e-215
2.62695e-215
1.58998e-215
9.48422e-216
5.58093e-216
3.24267e-216
1.86193e-216
1.05739e-216
5.94356e-217
3.3091e-217
1.82609e-217
9.99462e-218
5.42893e-218
2.92838e-218
1.56948e-218
8.36268e-219
4.43231e-219
2.33797e-219
1.22799e-219
6.42558e-220