/*--------------------------------*- C++ -*----------------------------------*\
  =========                 |
  \\      /  F ield         | OpenFOAM: The Open Source CFD Toolbox
   \\    /   O peration     | Website:  https://openfoam.org
    \\  /    A nd           | Version:  11
     \\/     M anipulation  |
\*---------------------------------------------------------------------------*/
FoamFile
{
    format      ascii;
    class       volScalarField;
    location    "100";
    object      C;
}
// * * * * * * * * * * * * * * * * * * * * * * * * * * * * * * * * * * * * * //

dimensions      [0 0 0 1 0 0 0];

internalField   nonuniform List<scalar> 
427520
(
1.0457e-311
1.146e-311
-1.23341e-312
2.37976e-312
3.65799e-312
1.74452e-312
-2.48616e-312
2.27756e-312
7.59165e-312
2.64664e-312
1.45096e-312
7.48947e-312
-1.23449e-311
1.91494e-312
1.98019e-311
1.04077e-311
6.01394e-312
1.04813e-311
1.31491e-311
2.69736e-312
1.72982e-312
-3.8844e-313
-3.28498e-312
-2.55527e-312
-7.95256e-312
-4.67613e-312
-5.57553e-312
-3.73923e-313
-1.08809e-311
2.87563e-312
6.93059e-312
-3.37649e-312
-9.47363e-312
6.77517e-312
-2.66314e-312
-7.82505e-312
-4.95721e-312
-8.32437e-313
9.91037e-312
2.91529e-312
-1.01446e-311
-1.2574e-311
-7.83109e-312
7.91518e-312
2.87262e-313
1.60853e-311
1.99681e-311
1.38942e-311
-4.87693e-313
-8.01018e-313
4.55597e-312
-3.60743e-312
-2.65958e-312
-7.61223e-312
-1.79762e-311
-1.28291e-311
-1.55754e-311
2.52128e-312
1.62443e-312
-4.64327e-313
5.43796e-312
1.79914e-311
1.72789e-311
2.11512e-312
-1.60382e-312
-6.51317e-312
-2.97597e-312
-1.09148e-312
9.53132e-312
-1.0191e-311
-1.18002e-311
5.10013e-312
1.22025e-311
1.58964e-313
-8.49516e-313
3.6267e-312
7.3611e-312
-4.32642e-312
-1.34826e-313
3.517e-312
7.75637e-312
-1.62141e-311
-4.78979e-312
6.56964e-314
-5.71708e-312
-7.05134e-312
4.69063e-312
1.85156e-312
1.05991e-311
3.58552e-312
2.89123e-312
1.15698e-311
1.08604e-311
7.29218e-312
-8.31449e-312
-1.78538e-311
-1.84798e-311
-1.55392e-311
2.14928e-312
8.78291e-312
1.15756e-311
-9.54882e-312
-4.20823e-312
1.04533e-311
7.04097e-312
1.28019e-311
5.32412e-313
-2.62504e-313
-1.53858e-311
1.14415e-311
1.63825e-311
-6.09582e-312
1.10629e-311
2.16118e-311
1.55881e-312
-7.77711e-312
-9.71765e-312
-5.27212e-313
-1.1128e-311
-1.42314e-311
-2.6151e-311
-1.75466e-311
-1.00924e-311
-1.4522e-312
-7.29086e-312
1.45504e-311
-1.90826e-312
1.86589e-311
1.10462e-311
1.83204e-311
2.02422e-311
7.04124e-312
-7.98907e-313
3.17125e-312
-6.46267e-312
-2.77194e-311
-2.03009e-311
-3.55008e-312
2.17359e-311
8.43703e-312
1.5687e-311
1.50295e-311
2.04026e-311
1.60194e-311
1.35692e-311
5.38336e-312
2.03937e-311
2.27779e-311
2.39767e-311
-5.90288e-312
-2.71093e-311
-1.79727e-311
-3.9345e-312
4.54807e-312
2.65942e-312
3.28459e-312
-5.31001e-312
-1.27654e-311
-1.65966e-311
-2.79447e-312
-9.69002e-312
1.05791e-312
2.88688e-312
-4.72985e-312
-2.23164e-311
-1.88378e-311
-9.4214e-312
9.80908e-313
1.75376e-312
-9.55151e-314
1.11323e-311
1.34715e-312
-8.28042e-314
4.25618e-312
-2.04101e-312
-1.17059e-311
-1.79057e-311
-2.89811e-311
-1.50753e-311
3.67373e-312
1.08381e-312
-1.63427e-311
2.01356e-312
2.10897e-311
1.75521e-311
1.37405e-311
1.73124e-311
2.08651e-311
1.23308e-311
1.42173e-311
1.41436e-311
-5.15969e-312
2.94332e-312
2.22971e-312
7.64009e-312
-8.50857e-312
9.00296e-313
-1.178e-311
2.92922e-312
-1.94208e-311
-1.3628e-311
-2.07763e-311
-9.6126e-312
8.44965e-312
8.38767e-312
1.4726e-311
-1.7628e-311
1.47025e-311
7.4079e-312
2.08609e-311
2.15083e-311
2.79877e-311
4.43808e-312
3.95807e-312
-1.65478e-311
-2.30154e-311
-1.74354e-311
7.64966e-312
2.36497e-311
1.17377e-311
-7.67837e-312
-4.35058e-312
-3.68919e-312
4.24866e-312
6.51663e-312
2.2486e-311
3.95208e-311
3.53426e-311
6.88694e-312
-1.59571e-311
-2.63921e-311
-1.89464e-311
-5.00454e-313
1.03434e-311
5.15508e-312
-3.14525e-312
-9.01879e-312
1.50428e-312
2.55487e-311
7.89898e-311
-2.21984e-311
-3.22271e-311
-1.15886e-311
-1.22593e-311
-2.8166e-311
-1.87519e-311
-1.15602e-311
-5.25042e-312
1.89837e-312
-5.4571e-312
-9.8204e-312
-2.5873e-312
4.05755e-312
3.36783e-312
7.47497e-312
4.87841e-314
-1.60285e-311
-3.49664e-311
-3.01773e-311
-9.3829e-312
-5.88077e-312
-1.59786e-311
-2.19113e-312
2.8381e-311
2.20181e-311
1.72432e-311
2.33883e-311
3.47977e-311
2.9967e-311
2.02829e-311
1.81549e-311
-1.03745e-311
1.67998e-311
1.55809e-313
-6.46676e-312
-2.16456e-311
-3.41838e-311
-2.52507e-311
8.33052e-312
-2.51562e-312
6.89018e-312
-8.01719e-314
1.09459e-311
8.81263e-312
2.37538e-311
5.70765e-312
-1.29321e-311
6.65116e-312
1.27175e-311
3.08065e-311
3.32715e-311
4.5985e-311
7.73575e-312
-1.88239e-311
-2.31717e-311
-2.98598e-311
-2.54338e-311
8.97521e-312
5.50027e-312
2.3677e-312
6.53384e-313
9.3364e-314
-1.35112e-311
-1.24699e-311
-6.90665e-312
1.60014e-311
1.33915e-311
1.28116e-311
-1.54771e-311
-2.0358e-311
-9.29908e-312
-4.0082e-313
5.88477e-312
9.17213e-312
6.78862e-312
-8.51414e-312
-2.4768e-311
8.30176e-312
1.44203e-311
1.47833e-311
-2.40617e-311
-2.68678e-311
-3.22478e-311
-1.11619e-311
-2.93423e-311
-1.75884e-311
-1.13925e-311
-8.15387e-312
1.37045e-312
9.59509e-313
6.56087e-314
6.07561e-313
4.66282e-312
1.14462e-311
1.26589e-311
1.43747e-311
-1.16376e-311
-3.40365e-311
-2.47641e-311
-8.63116e-312
-2.19238e-311
-1.38419e-311
2.5765e-312
1.99496e-311
1.31221e-311
2.11e-311
1.69616e-311
2.74177e-311
1.82946e-311
1.97645e-311
7.3967e-312
-1.21047e-311
8.62335e-312
1.17349e-311
-5.63157e-312
-3.35096e-311
-2.73129e-311
-2.63138e-311
-4.50534e-312
-1.04147e-311
1.1286e-311
-8.57168e-312
1.05097e-311
1.02579e-311
1.05283e-311
-2.97798e-313
-1.87115e-311
1.12221e-311
2.50085e-311
3.29716e-311
4.68776e-311
4.22514e-311
1.22549e-311
-1.08359e-311
-2.04592e-311
-2.50688e-311
-3.71978e-311
-3.81317e-312
7.43946e-312
1.153e-311
1.87824e-311
2.92114e-311
2.6151e-311
1.03544e-311
-5.31216e-312
-1.35735e-311
-6.35827e-312
-5.30617e-312
-1.0293e-311
-1.15766e-311
-2.97554e-312
-3.56001e-312
-3.95338e-312
1.09699e-311
2.38962e-311
1.26411e-311
6.14301e-312
1.67053e-311
3.43318e-311
1.17477e-311
1.1895e-312
2.34828e-312
-9.4284e-312
1.33256e-311
-6.10298e-312
-1.81422e-311
-4.43914e-312
5.35861e-312
1.54619e-311
1.16808e-311
5.42648e-312
-8.44353e-312
-1.36497e-311
-1.13359e-311
8.58038e-312
2.32022e-311
9.63104e-312
-4.43488e-312
8.01279e-312
4.3598e-313
-1.17893e-311
-7.01317e-312
5.5088e-314
6.3516e-312
1.32466e-311
1.90231e-311
2.95527e-311
1.95355e-311
3.6108e-312
8.9149e-312
-1.77178e-312
5.13368e-312
5.29545e-312
-5.83182e-312
-1.46767e-311
-3.9802e-311
-2.07842e-311
-9.43891e-312
-5.41519e-312
-2.90704e-312
-3.29065e-312
1.23268e-312
4.64288e-312
9.60207e-312
1.91719e-311
1.52315e-311
-1.10535e-312
8.68037e-312
1.81568e-311
4.37155e-312
3.87172e-311
3.67029e-311
1.78782e-311
-5.36204e-312
-3.00177e-311
-4.13593e-311
-6.00382e-311
-4.63988e-311
-3.49533e-311
-1.47586e-311
1.21743e-311
3.04166e-311
3.75781e-311
3.14367e-311
2.28604e-311
-4.46648e-312
1.24272e-311
1.43327e-312
1.39157e-311
4.2072e-312
-1.41047e-311
7.80484e-313
8.11505e-313
3.06541e-311
3.30184e-311
2.38483e-311
1.41979e-311
1.38734e-311
2.19195e-311
4.48698e-311
2.95239e-311
1.71538e-311
9.82993e-312
1.74525e-311
6.87454e-312
5.3501e-312
1.80669e-311
1.64532e-311
2.63271e-311
1.87202e-311
2.1179e-311
-1.34129e-312
-1.59751e-311
-3.83543e-312
1.26838e-311
2.17627e-311
4.24227e-312
-5.85297e-312
3.4292e-312
1.3237e-311
-2.22567e-312
2.08024e-312
-9.81924e-312
-5.80169e-313
1.70075e-311
2.84281e-311
2.54213e-311
4.78987e-312
-7.00332e-312
6.05072e-312
6.53356e-312
4.63569e-312
-8.06993e-312
-1.84268e-311
-2.31654e-311
-3.5327e-311
-2.84414e-311
-1.33401e-311
-4.01846e-312
-8.76685e-313
1.43351e-311
1.32821e-311
1.11873e-311
6.66725e-312
1.75673e-311
2.47258e-313
1.02976e-311
1.9901e-311
2.56351e-311
2.7299e-312
3.63002e-311
4.09405e-311
4.97209e-311
4.61265e-311
-2.77739e-312
-3.14363e-311
-4.75712e-311
-4.73161e-311
-6.43322e-311
-5.90953e-311
-4.17354e-311
-1.54294e-311
2.47364e-311
3.58085e-311
5.00836e-311
2.89094e-311
2.73201e-311
2.08856e-311
1.12462e-311
-1.38344e-311
-2.51058e-311
-3.6273e-312
8.55312e-312
4.12695e-311
4.09922e-311
2.28075e-311
2.73418e-312
1.75832e-311
3.57645e-311
4.24863e-311
4.3019e-311
5.15097e-311
5.14805e-311
4.20724e-311
1.99717e-311
4.75604e-312
6.3456e-312
1.36369e-311
1.6901e-311
2.59544e-311
2.21891e-311
2.34472e-312
-1.6633e-311
-1.4644e-312
1.15745e-311
3.98781e-311
2.87344e-311
8.99713e-312
8.32967e-312
-2.09686e-312
3.89571e-312
1.85749e-311
1.80831e-311
1.89458e-311
2.64269e-311
1.88353e-311
2.50288e-311
1.83063e-311
1.76995e-311
2.08081e-311
2.83548e-311
-1.4959e-312
-4.74291e-312
-1.6924e-311
-2.87844e-311
-2.34791e-311
-1.87223e-311
-1.17528e-311
-1.32632e-311
8.02588e-312
-6.61693e-313
3.99382e-312
5.13699e-312
5.74456e-312
1.18542e-311
6.30623e-312
9.03488e-312
7.10012e-312
-9.44234e-312
8.25084e-312
2.41992e-311
3.68279e-311
6.14218e-311
7.56565e-311
4.60907e-311
3.1983e-311
1.40552e-311
-4.06506e-312
-2.97835e-311
-4.8323e-311
-6.48669e-311
-5.46072e-311
-4.78678e-312
2.78263e-311
2.8542e-311
2.62722e-311
1.3418e-311
5.6438e-312
-1.05114e-311
-4.08914e-311
-4.26896e-311
-3.62468e-311
-3.58147e-311
-3.95265e-312
-6.3207e-312
1.11942e-311
1.85122e-311
1.93221e-311
4.56465e-311
7.96963e-311
4.89458e-311
4.22344e-311
6.2521e-311
5.17501e-311
3.42755e-311
1.45895e-311
-1.4689e-311
2.28273e-312
6.92165e-312
2.98033e-311
2.5977e-311
4.22986e-312
1.01661e-312
-1.20629e-311
-9.37216e-312
9.50006e-312
7.45479e-312
2.34002e-311
3.41748e-311
2.11992e-311
8.80632e-313
9.52978e-312
1.0842e-311
6.54724e-312
1.83972e-311
5.16691e-312
2.0808e-311
4.9511e-311
3.11752e-311
1.54158e-311
2.58106e-311
1.42848e-312
-6.25549e-312
-3.05451e-311
-1.76594e-311
2.81875e-312
6.22463e-313
-2.32319e-312
-1.34278e-311
7.04852e-312
-1.08138e-311
-4.90007e-312
1.58598e-313
-2.06845e-312
1.03476e-311
-5.66729e-313
-2.2592e-311
-2.33632e-311
-2.49758e-311
-3.39e-311
-2.67906e-311
-1.43829e-311
4.05103e-312
3.93777e-311
6.55877e-311
8.12933e-311
8.63406e-311
6.72308e-311
2.21032e-311
-2.57408e-311
-5.32881e-311
-6.5415e-311
-4.34184e-311
-1.85466e-311
-1.60246e-311
5.81699e-313
2.53308e-312
-8.2935e-312
-2.07497e-311
-4.73391e-311
-4.14971e-311
-3.81214e-311
-3.96032e-311
-1.16894e-311
-1.49538e-311
4.75699e-312
1.86174e-311
2.20327e-311
3.73219e-311
6.43162e-311
-3.53679e-312
5.0673e-311
4.6333e-311
5.13378e-311
2.47682e-311
1.26175e-312
-1.85099e-312
-1.43204e-311
2.00373e-312
2.34827e-311
2.82186e-311
-2.33625e-312
-2.56117e-312
-7.49382e-312
-9.84502e-312
-1.07164e-311
-8.04143e-312
4.97888e-312
2.68394e-311
3.88994e-311
8.03739e-312
5.96427e-312
6.16552e-312
-8.67454e-312
1.03606e-313
-2.49458e-312
1.16857e-311
3.76218e-311
4.28039e-311
3.49468e-311
2.50522e-311
-1.28892e-312
6.88565e-313
-4.41297e-312
-1.18099e-311
1.73825e-311
2.86162e-311
8.60596e-312
-8.12817e-312
-7.19298e-313
-4.26876e-312
-1.50989e-311
5.36907e-312
9.68796e-312
1.93563e-311
-5.21095e-312
-1.27355e-311
-7.796e-312
-2.20043e-311
-5.08405e-311
-8.06743e-311
-1.09892e-310
-1.07042e-310
-5.89495e-311
1.06008e-311
6.81268e-311
1.18936e-310
1.21082e-310
8.35331e-311
5.26951e-311
-5.09301e-312
-5.87118e-311
-6.95787e-311
-6.47223e-311
-4.25693e-311
-4.14619e-311
-2.72711e-311
-8.81948e-312
-5.1604e-312
-2.74343e-311
-2.34976e-311
-2.21241e-311
-3.74946e-311
-2.79854e-311
-5.55655e-312
2.0951e-311
3.5013e-311
7.07622e-311
1.13217e-310
1.11104e-310
-2.10342e-311
2.3983e-311
3.90448e-311
3.85572e-311
9.84458e-312
-7.27743e-312
-1.97562e-311
-2.47197e-311
6.06228e-313
2.75904e-311
3.17694e-311
1.46512e-311
-7.04781e-313
-1.15181e-313
-1.1881e-311
-1.25259e-311
-2.59718e-311
-8.31256e-312
6.37189e-313
1.2068e-311
1.95989e-311
1.25215e-311
1.67172e-312
-1.25887e-311
-1.25387e-311
-8.53676e-312
3.63655e-312
3.6633e-311
3.81262e-311
1.50348e-311
2.58282e-311
-6.33716e-312
6.43011e-312
1.92328e-311
4.35978e-312
8.11124e-312
1.28572e-311
-1.86268e-312
2.3974e-312
1.493e-312
5.22852e-312
-1.12001e-311
3.50203e-313
2.74514e-311
2.08191e-311
1.08735e-311
2.07392e-311
3.7927e-311
3.10335e-311
-1.10351e-311
-6.39546e-311
-1.1897e-310
-1.59043e-310
-1.45136e-310
-9.3876e-311
-1.21203e-311
8.54006e-311
1.27111e-310
1.28736e-310
1.06298e-310
3.32308e-311
-4.70878e-311
-6.73134e-311
-6.73035e-311
-6.18944e-311
-5.84406e-311
-2.02482e-311
-1.1453e-311
8.75131e-312
5.83364e-312
1.64469e-311
3.09515e-311
1.45203e-311
2.44326e-311
9.08524e-312
2.96568e-311
2.47345e-311
4.82774e-311
5.90204e-311
8.53822e-311
-3.78112e-311
-4.78527e-312
-8.27388e-312
-1.21648e-311
-1.01947e-311
-9.31562e-312
-7.07739e-312
-9.38344e-312
3.26085e-312
1.73059e-311
4.15386e-311
2.52669e-311
2.2574e-311
2.61078e-312
-2.1351e-312
1.9598e-312
-3.56136e-311
-3.80844e-311
-2.20007e-311
-1.84111e-311
-1.26283e-311
1.13136e-312
5.0914e-312
-1.61286e-311
-1.28459e-311
-8.575e-312
4.61949e-312
3.09342e-311
2.54569e-311
2.58315e-311
2.15662e-311
1.31516e-312
1.87662e-311
1.14028e-311
-5.97816e-312
4.32482e-312
2.56228e-311
1.38049e-311
1.19267e-312
-4.98015e-312
3.50558e-312
1.49137e-313
1.51585e-311
3.61609e-311
2.77316e-311
1.30772e-311
5.21552e-311
6.77694e-311
9.81814e-311
6.16738e-311
1.20668e-311
-6.28489e-311
-1.33234e-310
-1.73502e-310
-1.60964e-310
-8.89288e-311
8.9455e-312
9.97684e-311
1.52361e-310
1.48997e-310
1.03895e-310
2.59147e-311
-1.41029e-311
-4.79229e-311
-6.26964e-311
-7.03427e-311
-3.20391e-311
-9.01646e-312
2.56621e-312
1.52596e-311
2.63477e-311
3.9048e-311
3.81469e-311
4.47529e-311
3.0625e-311
-1.29572e-312
-1.72877e-311
-3.02988e-311
-3.53015e-311
-1.07364e-311
-6.43487e-311
-8.59713e-311
-6.02973e-311
-4.0378e-311
-1.24929e-311
-1.11862e-311
1.51003e-311
1.30547e-311
1.20726e-311
1.00532e-311
1.42735e-311
1.92266e-311
2.2836e-311
2.30625e-311
7.50643e-312
3.78481e-312
-2.48734e-311
-4.62846e-311
-4.69215e-311
-2.46106e-311
-1.02458e-311
-1.982e-311
-1.72509e-311
-1.32596e-311
-9.72694e-312
-1.71157e-311
-6.54489e-312
1.4021e-311
2.06252e-311
2.27987e-311
1.79737e-311
1.27911e-311
2.6189e-311
3.11924e-312
-1.36018e-311
-1.13432e-311
5.43389e-312
1.06239e-311
8.685e-312
-1.18849e-311
8.2672e-312
2.2194e-312
1.63745e-311
1.65042e-311
6.51175e-312
9.66245e-312
2.80592e-311
6.92705e-311
1.26365e-310
1.40138e-310
1.23166e-310
3.56864e-311
-4.82784e-311
-1.20259e-310
-1.72819e-310
-1.51229e-310
-8.36988e-311
3.67359e-311
1.3103e-310
1.76651e-310
1.51967e-310
8.9915e-311
3.98905e-311
-1.09776e-311
-4.81495e-311
-7.40293e-311
-5.32202e-311
-4.43561e-311
-4.15591e-311
-3.47223e-311
-3.96401e-311
-8.0194e-312
1.60911e-311
1.58988e-311
3.76653e-312
-1.17525e-311
-1.93672e-311
-5.18888e-311
-5.30766e-311
6.68815e-312
-1.19679e-310
-1.08956e-310
-8.29593e-311
-4.74874e-311
-3.12039e-311
-2.49921e-312
1.68689e-311
-1.00967e-311
1.23329e-311
6.19747e-312
5.2585e-312
6.66389e-312
1.82726e-311
1.03845e-311
1.14426e-312
1.4346e-314
-1.4628e-311
-1.70504e-311
-1.32175e-311
-1.48885e-311
-7.0609e-312
-1.69014e-311
-2.91697e-311
-2.23665e-311
-2.80791e-311
-2.6726e-311
-1.28623e-311
6.74317e-312
1.25332e-311
1.61218e-311
2.97197e-311
2.80611e-311
1.46909e-311
6.75241e-312
-8.30829e-312
-1.20006e-311
-3.07135e-312
1.14751e-311
-4.18681e-312
-6.85638e-312
1.13748e-311
-7.77437e-312
1.83493e-311
1.8322e-311
-1.26045e-311
-2.81743e-311
-1.62261e-311
1.88786e-311
7.12087e-311
1.18576e-310
1.48874e-310
1.2159e-310
5.34322e-311
-3.95452e-311
-1.5305e-310
-1.98822e-310
-1.74154e-310
-6.31932e-311
5.3006e-311
1.24152e-310
1.46414e-310
1.0277e-310
6.396e-311
9.15718e-312
-3.69132e-311
-6.32394e-311
-5.77682e-311
-7.5707e-311
-7.05619e-311
-5.7224e-311
-7.02282e-311
-4.4645e-311
-1.74098e-311
1.60218e-311
-1.59765e-311
-1.12967e-311
2.20202e-311
-8.85386e-313
-1.41922e-312
-1.20477e-311
-1.24566e-310
-1.2195e-310
-1.18446e-310
-7.32923e-311
-2.23652e-311
-2.21879e-312
1.85987e-311
-5.54145e-312
8.87453e-312
8.85398e-312
1.49154e-311
1.82098e-311
1.19764e-311
7.0733e-313
1.31764e-312
5.18827e-312
3.3139e-312
-5.06046e-312
3.57021e-312
7.11533e-312
-6.85102e-312
-1.59646e-311
-1.44048e-311
-1.2464e-311
-3.58067e-311
-1.93378e-311
-7.29076e-312
-4.67282e-312
2.75143e-312
1.13747e-311
2.78857e-311
2.2889e-311
1.55035e-312
6.92113e-312
2.2052e-311
9.44003e-313
1.88278e-311
4.66073e-312
-1.95769e-311
-2.20924e-311
1.57541e-312
-2.48926e-312
1.70572e-311
2.5325e-311
-8.59861e-312
-2.72974e-311
-4.37444e-311
-3.18292e-311
-5.74572e-312
4.56641e-311
1.10565e-310
1.34441e-310
1.02356e-310
3.25667e-311
-1.08812e-310
-1.96413e-310
-2.26344e-310
-1.61723e-310
-3.1333e-311
8.12023e-311
1.34675e-310
1.16683e-310
9.85085e-311
3.70447e-311
-1.4822e-311
-2.54857e-311
-5.06403e-311
-6.43688e-311
-7.01893e-311
-6.62216e-311
-5.30844e-311
-7.01908e-311
-4.05991e-311
3.39691e-312
-5.94105e-312
-1.39463e-311
-2.17854e-311
-1.21293e-311
8.75459e-312
-2.56749e-311
-1.25009e-310
-1.52752e-310
-1.19139e-310
-6.35281e-311
-3.75031e-311
-8.33428e-312
-9.57532e-312
5.12429e-312
2.9469e-311
5.14016e-312
3.01311e-311
2.12053e-311
1.24581e-311
-9.1075e-312
-1.35073e-311
-5.67832e-312
3.00998e-312
-4.33633e-312
1.60773e-311
2.78513e-311
1.71958e-311
5.29364e-312
-2.3536e-312
-9.23856e-312
-1.32323e-311
1.73465e-312
6.28604e-312
4.3637e-312
-1.43453e-313
1.2849e-311
2.41173e-311
1.53412e-311
-1.23373e-312
3.80858e-312
2.77276e-311
1.26252e-311
1.29138e-311
-1.76742e-311
-2.46496e-311
-3.02911e-311
-1.33583e-312
1.03611e-311
1.6394e-311
4.83318e-311
1.87433e-311
-1.74123e-311
-6.6912e-311
-8.69344e-311
-1.1319e-310
-6.29313e-311
2.19113e-311
1.04963e-310
1.47151e-310
1.10557e-310
-1.71601e-311
-1.4822e-310
-2.40519e-310
-2.39439e-310
-1.33767e-310
-1.41261e-311
7.91066e-311
1.24802e-310
1.16774e-310
7.04239e-311
2.45513e-311
1.10538e-311
-3.8755e-312
-1.65018e-311
-4.78065e-311
-4.64335e-311
-4.15202e-311
-2.92893e-311
-3.17371e-312
1.05275e-311
-8.1946e-312
-1.18844e-311
-1.47627e-311
-1.64771e-312
-4.13939e-311
-5.32443e-311
-1.06315e-310
-9.60516e-311
-8.26889e-311
-9.41299e-311
-5.48622e-311
-6.05367e-311
-6.78123e-311
-4.10727e-311
1.6159e-312
1.94752e-311
2.66027e-311
2.81855e-311
1.71816e-311
-1.31233e-311
-1.49097e-311
-2.93745e-311
-1.37441e-311
7.04799e-312
2.2505e-311
4.14309e-311
3.24481e-311
9.0832e-313
-5.89895e-312
-1.66649e-311
1.26362e-312
2.21399e-311
1.60113e-311
2.22625e-311
1.27303e-311
2.63591e-311
1.09002e-311
1.36744e-312
4.05861e-312
-1.94858e-312
1.47557e-311
1.10935e-311
1.64978e-311
5.08619e-312
-1.90752e-312
-1.62234e-311
6.62353e-312
2.40084e-311
3.55137e-311
5.66663e-311
4.5607e-311
2.09949e-311
-3.87097e-311
-1.15646e-310
-1.75251e-310
-1.41827e-310
-5.18402e-311
4.189e-311
1.52099e-310
1.77479e-310
9.47411e-311
-6.4239e-311
-1.97584e-310
-2.74604e-310
-2.24727e-310
-1.22265e-310
1.37684e-311
1.03109e-310
1.15726e-310
1.04348e-310
6.23711e-311
1.72321e-311
1.60248e-311
-1.71222e-311
-5.16015e-311
-6.00787e-311
-6.06492e-311
-3.89977e-311
-1.31106e-311
2.66728e-311
1.34941e-311
2.02836e-311
1.88237e-311
1.85014e-311
1.69989e-311
9.5229e-312
-1.02439e-310
-9.58343e-311
-9.74976e-311
-8.91032e-311
-5.75675e-311
-6.48965e-311
-8.07261e-311
-4.72179e-311
-1.57126e-311
1.19306e-312
3.25317e-311
4.45605e-311
1.14865e-311
-2.05125e-311
-2.82576e-311
-4.24787e-311
-2.04792e-311
-4.73868e-312
7.02436e-312
3.31746e-311
2.80295e-311
2.00041e-311
1.39893e-311
-8.86862e-312
-9.29007e-312
7.59413e-312
2.53153e-311
3.4178e-311
1.75062e-311
3.0669e-311
1.4009e-311
1.47897e-312
3.46094e-312
6.62116e-312
6.99966e-312
9.67923e-312
1.9472e-311
3.76757e-311
9.16159e-312
-1.19059e-311
2.12676e-311
2.89777e-311
5.81037e-311
9.89674e-311
9.10736e-311
8.51844e-311
3.09929e-311
-7.48037e-311
-1.68471e-310
-2.04596e-310
-1.43693e-310
-2.45731e-311
1.24172e-310
2.09273e-310
1.79679e-310
5.71889e-311
-1.21205e-310
-2.49143e-310
-2.61926e-310
-2.036e-310
-6.19468e-311
4.52587e-311
8.20722e-311
9.51525e-311
8.95097e-311
6.35742e-311
4.11549e-311
1.80776e-311
-2.32259e-311
-4.64383e-311
-6.61663e-311
-5.70531e-311
-1.07127e-311
3.30191e-311
2.72722e-311
2.70935e-311
1.21173e-311
2.62558e-311
1.0414e-311
2.58373e-311
-1.5821e-310
-1.15723e-310
-1.00158e-310
-7.95775e-311
-5.42263e-311
-3.39298e-311
-3.59938e-311
-5.15109e-311
-2.51516e-311
-8.46412e-312
1.23678e-311
1.35379e-311
1.54448e-311
1.33852e-312
-1.59875e-311
-4.40201e-311
-2.9858e-311
-8.33997e-312
7.02838e-314
3.13517e-311
1.23311e-311
2.31835e-311
2.15346e-311
1.80643e-312
-2.27221e-312
8.61368e-312
1.29417e-311
2.5083e-311
2.64163e-311
3.40697e-311
7.69961e-312
-1.38492e-311
-3.24674e-312
9.55019e-312
-1.88846e-312
2.65408e-312
2.95358e-311
2.97969e-311
2.07436e-311
3.68573e-312
2.5029e-311
3.4739e-311
5.85338e-311
9.63344e-311
1.33112e-310
1.53392e-310
1.1351e-310
2.37561e-311
-9.87604e-311
-2.01859e-310
-1.89161e-310
-9.4678e-311
5.51905e-311
1.92249e-310
2.35209e-310
1.66065e-310
1.43495e-313
-1.52697e-310
-2.43858e-310
-2.48293e-310
-1.65089e-310
-5.80783e-311
3.48206e-311
1.05025e-310
1.05529e-310
9.40939e-311
8.89723e-311
6.46989e-311
3.59987e-311
9.52718e-312
-2.36562e-311
-2.42725e-311
-1.60479e-311
-2.23567e-312
3.2064e-311
3.32441e-311
4.99739e-311
6.48205e-311
8.38512e-311
1.0665e-310
-1.24939e-310
-1.30159e-310
-1.02541e-310
-4.85861e-311
-4.90117e-311
-4.48555e-311
-2.86618e-311
-1.8576e-311
6.10789e-312
-1.51535e-312
2.09382e-311
1.53832e-311
5.55067e-313
5.83491e-312
-1.64131e-311
-2.21322e-311
-1.71546e-311
-2.0189e-311
-1.73217e-312
2.44203e-311
1.52377e-311
3.36766e-311
2.66931e-311
1.53174e-311
-2.23834e-312
1.57776e-312
7.47455e-313
2.17768e-311
1.68381e-311
2.38692e-311
8.31234e-312
-1.8252e-311
-2.31623e-311
-1.02034e-311
-2.31783e-311
-1.30043e-311
2.36087e-311
2.27845e-311
1.72293e-311
1.88562e-311
1.82405e-311
2.90196e-311
5.00745e-311
6.80235e-311
1.32698e-310
2.03006e-310
1.9513e-310
1.41877e-310
1.48341e-311
-1.19419e-310
-1.79219e-310
-1.51933e-310
-1.0145e-311
1.44235e-310
2.55823e-310
2.41638e-310
1.30604e-310
-5.31712e-311
-1.86071e-310
-2.55867e-310
-2.17358e-310
-1.31114e-310
-2.05337e-311
7.08162e-311
9.05061e-311
1.08183e-310
1.00701e-310
9.15666e-311
9.48886e-311
7.27806e-311
5.10601e-311
6.74562e-312
2.44528e-311
3.35555e-311
5.41518e-311
7.2316e-311
8.61767e-311
1.25283e-310
1.30963e-310
1.31415e-310
-1.35637e-310
-1.26029e-310
-1.01059e-310
-8.96468e-311
-6.38209e-311
-5.15966e-311
-7.7033e-312
-6.38563e-312
1.13404e-312
1.55986e-311
3.37049e-311
1.85936e-311
-1.71022e-312
-1.36106e-311
-2.92359e-311
-2.63282e-311
-1.05973e-311
-2.68332e-311
-1.70096e-311
2.20325e-311
2.2549e-311
2.07622e-311
1.56344e-311
1.30944e-311
3.10965e-312
2.07562e-311
2.63494e-311
1.61738e-311
2.85168e-311
2.20059e-311
1.52513e-311
5.05288e-312
-3.14385e-311
-3.34135e-311
-3.18105e-311
-2.25092e-311
2.21093e-311
3.83705e-311
3.15115e-311
3.06194e-311
3.30348e-311
1.44019e-311
2.31279e-311
3.29345e-311
1.22368e-310
1.94585e-310
2.15249e-310
2.16785e-310
1.19567e-310
-3.059e-311
-1.2284e-310
-1.52322e-310
-5.3181e-311
1.02542e-310
2.42936e-310
3.01031e-310
2.29337e-310
6.13078e-311
-7.74052e-311
-2.06176e-310
-2.34408e-310
-2.07914e-310
-1.07035e-310
-3.21641e-312
5.1222e-311
8.85678e-311
9.43821e-311
9.2753e-311
8.33123e-311
7.76377e-311
7.57673e-311
5.34446e-311
6.19058e-311
6.36008e-311
7.63839e-311
1.20542e-310
1.27862e-310
1.70493e-310
1.46041e-310
1.58569e-310
-1.20431e-310
-1.46442e-310
-1.44201e-310
-1.12235e-310
-1.00659e-310
-7.74481e-311
-3.47302e-311
-3.33886e-311
-2.22383e-311
3.27932e-312
1.82473e-311
1.04451e-311
-1.30277e-311
-2.91779e-311
-2.24874e-311
-2.66911e-311
-3.68327e-312
-2.0285e-311
-2.50732e-311
1.50108e-311
1.35576e-311
1.23289e-311
9.20908e-312
5.90942e-312
-3.93186e-312
1.12845e-311
9.0355e-312
7.08012e-313
2.65776e-311
2.25252e-311
1.69523e-311
6.62896e-312
-3.60493e-311
-5.37567e-311
-4.70552e-311
-2.86115e-311
1.1336e-312
2.02665e-311
2.38427e-311
3.81775e-311
3.88507e-311
9.39772e-312
-1.06008e-311
-1.05932e-312
6.64072e-311
1.49841e-310
2.21232e-310
2.51419e-310
2.02527e-310
8.55585e-311
-3.80188e-311
-1.11073e-310
-5.46432e-311
9.85698e-311
2.68733e-310
3.76317e-310
3.36729e-310
2.15355e-310
5.99289e-311
-1.09664e-310
-2.12348e-310
-2.33283e-310
-1.78469e-310
-7.64971e-311
1.13775e-314
3.7054e-311
7.28816e-311
9.21411e-311
8.82703e-311
8.20796e-311
7.99187e-311
6.50147e-311
8.17784e-311
8.86684e-311
1.04145e-310
1.54735e-310
1.5318e-310
1.96454e-310
1.80255e-310
1.63869e-310
-1.20546e-310
-1.10036e-310
-1.17647e-310
-1.15557e-310
-1.11296e-310
-9.39997e-311
-5.64252e-311
-4.67552e-311
-3.89243e-311
-1.14673e-311
1.1247e-311
-4.14011e-312
-1.24784e-311
-4.59811e-311
-2.10203e-311
-1.12423e-311
-1.46393e-312
-1.26639e-311
-2.12089e-311
-8.40758e-312
-2.0726e-312
3.86037e-312
2.26461e-311
6.82977e-312
-1.06588e-311
3.56494e-312
-7.53941e-312
-1.96554e-312
7.86477e-312
1.47016e-311
-5.27719e-312
-8.17876e-313
-2.2176e-311
-4.3256e-311
-5.41293e-311
-3.12258e-311
-2.19258e-311
-6.45186e-313
2.30879e-311
3.72105e-311
2.39883e-311
1.14617e-311
-2.84977e-311
-3.63166e-311
-1.97255e-312
8.41983e-311
1.83861e-310
2.5028e-310
2.49719e-310
1.68841e-310
4.25155e-311
-6.43651e-311
-3.47954e-311
8.42327e-311
2.64412e-310
4.04172e-310
4.31609e-310
3.58375e-310
2.24127e-310
3.05199e-311
-1.15742e-310
-1.90407e-310
-2.07673e-310
-1.2362e-310
-4.48327e-311
1.15837e-312
5.9907e-311
8.06221e-311
7.32204e-311
7.39888e-311
1.01803e-310
8.06619e-311
1.08332e-310
9.22053e-311
1.23718e-310
1.32919e-310
1.51284e-310
1.58416e-310
1.67859e-310
1.17745e-310
-9.83448e-311
-8.87386e-311
-9.07558e-311
-1.30787e-310
-1.08569e-310
-9.25729e-311
-5.27907e-311
-5.37924e-311
-5.28478e-311
-2.31901e-311
-2.81098e-312
-1.93267e-311
-2.09356e-311
-5.27261e-311
-1.7043e-311
-7.0346e-312
-2.59023e-312
-8.23467e-312
-2.92044e-311
-3.87806e-312
8.40346e-312
-6.09195e-312
8.06013e-312
3.67726e-312
7.86352e-312
1.58012e-311
-3.6946e-312
-1.23157e-311
-4.14205e-312
5.50874e-312
-1.17956e-312
4.68459e-312
-7.98938e-312
-2.8378e-311
-3.78138e-311
-3.32797e-311
-2.30609e-311
6.19093e-313
1.79368e-311
2.6148e-311
2.36084e-311
9.43203e-312
-1.61074e-311
-5.25556e-311
-5.67585e-311
8.72557e-312
9.71638e-311
2.07616e-310
2.63222e-310
2.02454e-310
9.35498e-311
-3.12507e-311
-2.57494e-311
3.43747e-311
2.20214e-310
3.9079e-310
4.84143e-310
4.8285e-310
3.87022e-310
2.21506e-310
4.60911e-311
-9.04988e-311
-1.62389e-310
-1.38253e-310
-5.97243e-311
-2.23894e-311
1.62061e-311
6.3548e-311
5.89212e-311
6.34556e-311
1.02144e-310
1.03021e-310
1.22642e-310
1.26158e-310
1.39232e-310
1.30256e-310
1.23742e-310
8.11418e-311
4.96253e-311
2.69044e-311
-1.661e-310
-1.39919e-310
-1.14865e-310
-1.09741e-310
-6.31469e-311
-4.79394e-311
-3.957e-311
-4.44249e-311
-5.31906e-311
-3.25337e-311
-3.70641e-311
-8.94529e-312
-1.67045e-311
-4.2518e-311
-2.38046e-311
-2.44219e-311
-2.37712e-311
-1.81205e-311
-5.42803e-311
-2.1189e-311
-6.38527e-313
-1.02513e-311
8.5128e-312
1.94452e-311
1.22119e-311
2.52962e-311
1.41657e-312
-1.86008e-311
-1.87656e-311
-9.18529e-312
7.33632e-312
3.99856e-312
-4.62295e-312
-2.32103e-311
-3.38144e-311
-3.57601e-311
-2.06876e-311
-1.32519e-311
-3.28551e-312
1.5951e-311
2.24584e-311
2.25733e-311
-1.90959e-311
-7.55969e-311
-1.04748e-310
-8.45244e-311
1.76441e-311
1.45319e-310
2.30742e-310
2.11798e-310
1.22559e-310
1.06769e-311
-4.52465e-311
-4.49238e-312
1.30632e-310
3.25111e-310
4.78302e-310
5.50723e-310
5.43408e-310
4.04446e-310
2.14365e-310
3.34286e-311
-6.94995e-311
-9.66395e-311
-5.70735e-311
-2.22465e-311
2.21232e-311
5.54538e-311
4.42867e-311
6.44635e-311
1.02152e-310
8.54717e-311
1.21474e-310
1.25158e-310
1.40605e-310
1.49272e-310
9.43074e-311
6.94006e-311
4.59867e-311
4.69425e-311
-1.1756e-310
-7.20554e-311
-8.55206e-311
-8.54399e-311
-7.57982e-311
-5.71824e-311
-6.39902e-311
-6.18263e-311
-5.97478e-311
-4.85349e-311
-3.9434e-311
9.03165e-312
3.77031e-312
-2.80562e-311
-2.41539e-311
-2.20687e-311
-1.48047e-311
-2.55819e-311
-3.91413e-311
-3.039e-311
-1.07357e-311
-1.31282e-311
-8.87073e-312
1.77893e-311
1.85308e-311
3.39136e-311
-1.00608e-311
-2.60264e-311
-1.0426e-311
5.303e-312
1.02434e-311
1.7125e-311
2.5696e-311
-6.3695e-312
-7.9849e-312
-5.43895e-312
-2.57736e-311
-2.74553e-311
-2.24569e-311
2.31641e-311
4.04912e-311
5.02954e-311
-5.32104e-312
-8.41105e-311
-1.42294e-310
-1.55039e-310
-7.66518e-311
5.15609e-311
1.56625e-310
1.78811e-310
1.10388e-310
1.36064e-311
-5.79141e-311
-5.53176e-311
2.21313e-311
2.23394e-310
4.10014e-310
5.5296e-310
6.12102e-310
5.72908e-310
4.04663e-310
2.19737e-310
6.74291e-311
-1.69126e-311
-3.93392e-311
-2.38269e-311
-3.4258e-312
5.58167e-311
6.74832e-311
8.57806e-311
1.03156e-310
1.10972e-310
1.07439e-310
1.22235e-310
1.20904e-310
1.48957e-310
1.01145e-310
7.54235e-311
6.43977e-311
6.87288e-311
-8.03524e-311
-4.68599e-311
-4.20453e-311
-5.79439e-311
-6.47273e-311
-5.70861e-311
-3.8604e-311
-5.37396e-311
-5.35342e-311
-6.76164e-311
-6.02673e-311
-2.94179e-311
-1.11495e-312
5.2686e-313
-2.30232e-312
-6.95405e-312
-1.77275e-311
-3.35132e-311
-4.30855e-311
-1.81683e-311
-3.24412e-312
-1.00374e-311
8.84109e-313
1.71969e-311
2.77489e-311
2.0966e-311
-8.20498e-312
-1.21227e-311
-2.2843e-311
-1.36654e-311
6.65104e-312
3.02341e-311
3.34705e-311
1.36876e-311
1.26387e-311
6.62593e-312
-4.61693e-312
-1.60622e-311
-6.46333e-312
2.86766e-311
5.9256e-311
8.721e-311
3.19476e-311
-7.49195e-311
-1.62832e-310
-2.24097e-310
-1.86194e-310
-7.06262e-311
4.6601e-311
1.14126e-310
8.53294e-311
-1.33319e-311
-7.87953e-311
-1.19074e-310
-8.30631e-311
7.55279e-311
2.81253e-310
4.9322e-310
5.93777e-310
6.38842e-310
5.43629e-310
3.81098e-310
2.00932e-310
7.70138e-311
1.9424e-311
7.85462e-312
-2.16046e-311
1.31555e-311
4.68674e-311
8.04337e-311
7.40513e-311
8.61646e-311
9.93484e-311
1.06979e-310
1.16199e-310
1.23365e-310
5.19787e-311
1.64704e-311
1.76922e-311
-2.12156e-311
-6.58956e-311
-6.38006e-311
-8.76818e-311
-7.95109e-311
-5.0068e-311
-3.4738e-311
-3.98104e-311
-3.94556e-311
-5.70238e-311
-7.53585e-311
-7.87484e-311
-5.82618e-311
-2.41436e-311
1.74214e-312
9.80344e-312
-1.26586e-311
-2.26826e-311
-2.45622e-311
-3.99947e-311
-8.0783e-312
-2.0265e-312
-8.06493e-312
7.26602e-312
4.49e-312
1.74544e-311
2.42919e-311
9.59134e-312
-2.69059e-311
-3.39106e-311
-1.57812e-311
7.99072e-312
2.89446e-311
5.04863e-311
2.916e-311
2.78858e-311
3.60745e-311
1.4091e-311
1.28551e-313
-1.99831e-311
3.00597e-311