/*--------------------------------*- C++ -*----------------------------------*\
  =========                 |
  \\      /  F ield         | OpenFOAM: The Open Source CFD Toolbox
   \\    /   O peration     | Website:  https://openfoam.org
    \\  /    A nd           | Version:  11
     \\/     M anipulation  |
\*---------------------------------------------------------------------------*/
FoamFile
{
    format      ascii;
    class       volScalarField;
    location    "100";
    object      C;
}
// * * * * * * * * * * * * * * * * * * * * * * * * * * * * * * * * * * * * * //

dimensions      [0 0 0 1 0 0 0];

internalField   nonuniform List<scalar> 
440320
(
6.27472e-312
2.24816e-312
-9.41751e-312
2.71494e-312
1.16581e-311
3.12984e-312
-1.68152e-312
-5.28449e-312
-1.61496e-312
1.60306e-311
9.85008e-312
6.7549e-312
9.82489e-313
1.4797e-312
1.15304e-311
-2.88138e-312
-3.1154e-312
-1.0182e-312
8.66065e-313
-3.03265e-312
1.31605e-312
9.68308e-313
-5.83502e-312
-1.87887e-311
7.36599e-313
1.43606e-312
-1.25094e-312
2.58607e-312
5.968e-312
6.13409e-312
4.84086e-312
5.91591e-312
3.2468e-312
3.70051e-312
-1.71163e-311
-1.82192e-311
-3.89225e-312
-2.25282e-312
1.59755e-311
8.43895e-313
1.58614e-311
1.16083e-313
3.59361e-312
-3.00136e-313
-6.02333e-313
-4.50701e-312
-2.75555e-312
1.65829e-311
-1.93524e-312
-1.41305e-312
7.83931e-313
-9.29076e-313
1.22021e-312
-1.70755e-311
-1.72074e-311
-1.12652e-312
1.50095e-312
2.18048e-312
-1.5674e-312
-5.52958e-312
1.3576e-312
3.14457e-312
4.34046e-312
4.81708e-312
6.5579e-312
4.60545e-312
4.03342e-312
-9.51888e-313
7.61828e-313
-1.41975e-311
-2.88004e-312
-4.79498e-313
4.36447e-312
2.48932e-312
1.12188e-312
1.33766e-312
1.78944e-312
3.97305e-313
-1.1042e-311
-1.40711e-312
-4.23403e-312
-3.69307e-312
-6.84927e-312
3.50585e-312
7.3213e-312
2.05049e-311
2.06489e-311
1.28018e-311
9.06251e-312
8.07006e-313
-1.25573e-311
-1.04857e-312
-1.42999e-311
-5.51044e-312
9.01618e-312
5.54335e-312
-8.56829e-312
1.9278e-313
5.77668e-312
2.15647e-312
-1.44407e-312
-4.76235e-313
-1.88087e-311
-1.99527e-311
-8.94826e-312
-1.91604e-311
-3.68849e-312
1.25313e-311
1.9849e-311
2.1144e-311
5.7561e-312
-8.64258e-312
1.51805e-312
-9.40214e-312
-1.69984e-311
-2.35081e-311
-1.34707e-312
2.15971e-312
2.53162e-312
4.48397e-312
-7.66326e-312
-1.81942e-311
-7.09972e-312
-1.95995e-311
-2.03637e-311
-8.38971e-312
-7.0771e-312
-1.28769e-312
-2.25121e-312
-1.45196e-312
-1.58906e-312
-6.61557e-312
-7.83156e-312
-1.57951e-311
-7.41946e-312
-2.08021e-311
9.81417e-312
-6.20663e-312
-1.55431e-312
3.03236e-312
-3.68045e-312
8.03415e-314
1.59904e-311
1.39952e-311
1.00932e-311
8.71376e-313
1.56053e-311
8.40084e-312
1.14211e-311
-3.09027e-312
-5.76273e-313
1.6157e-311
1.66995e-311
1.15897e-311
1.28289e-311
-4.10853e-312
-2.32796e-311
-1.17433e-311
-2.44705e-311
-1.26565e-311
-7.06205e-311
-3.86864e-311
-3.23995e-311
-1.10587e-311
1.53619e-311
3.73216e-311
3.94819e-311
2.6188e-311
2.937e-311
1.70123e-311
1.34881e-311
1.68725e-312
-1.59182e-311
-2.13768e-311
1.48089e-311
2.50777e-311
1.24938e-312
-7.71406e-313
1.29953e-312
-2.82291e-312
-1.95015e-311
-8.31112e-312
-9.82487e-312
-1.36541e-312
-7.80613e-312
-2.55443e-311
-8.84414e-312
1.1024e-311
2.31413e-311
2.36521e-311
6.48065e-312
-1.26765e-311
1.25308e-311
-4.54084e-312
-4.75799e-312
-2.59274e-311
6.50241e-313
1.84718e-311
7.44279e-312
3.48176e-311
5.07949e-312
-1.92722e-311
-1.61487e-311
-2.37978e-311
-9.26043e-312
-7.75294e-312
5.65297e-312
9.39925e-312
2.33359e-312
4.51353e-312
4.56978e-312
-1.23922e-311
-1.53038e-311
-2.08364e-311
-8.79742e-312
-1.31188e-311
5.24775e-312
4.38033e-312
1.36478e-312
-7.74816e-312
-1.199e-311
-3.47028e-312
1.31538e-311
3.15951e-312
1.37404e-311
1.97201e-311
2.42963e-311
1.7095e-311
2.21132e-311
1.72178e-311
1.78437e-311
2.41149e-311
1.22747e-311
-2.93474e-312
1.20793e-311
-1.29168e-311
-2.73271e-311
-2.64284e-311
-2.71926e-311
3.33171e-311
-7.10962e-311
-9.0808e-311
-5.7093e-311
-5.06736e-311
1.2288e-311
4.38818e-311
3.72434e-311
2.80834e-311
3.11531e-311
4.05628e-311
2.18035e-311
7.39829e-312
6.31591e-312
-6.5149e-312
9.32376e-312
2.40106e-311
1.52439e-311
2.17837e-312
5.77925e-313
-9.61323e-312
-1.60364e-311
1.80177e-312
-1.49866e-311
-1.47219e-311
-6.88218e-312
-2.47819e-311
-3.14435e-311
-1.49312e-311
1.20874e-311
1.15223e-311
4.47523e-312
-4.37512e-312
-5.42999e-312
8.54288e-312
1.47807e-311
-8.03927e-312
8.96285e-313
2.53915e-311
1.93186e-311
2.85814e-311
-1.01443e-311
-8.27695e-312
-3.64253e-311
-3.0457e-311
8.92966e-313
-1.21601e-311
6.34968e-313
3.41224e-312
7.02983e-312
1.5031e-311
-1.28768e-311
-2.57622e-311
-2.89871e-311
-3.2866e-311
-7.41354e-313
-3.86007e-312
-2.96768e-312
6.25336e-312
2.78809e-312
-1.40984e-311
-3.49107e-311
-8.57913e-313
2.16932e-311
1.05243e-314
1.58879e-311
1.74677e-311
1.72701e-311
2.44876e-311
1.32268e-311
6.92226e-312
1.09407e-311
1.57637e-311
1.69412e-311
-1.26497e-311
-1.48703e-311
-2.0442e-311
-1.23249e-311
1.44748e-311
3.48431e-313
2.09168e-311
-1.69297e-310
-1.0292e-310
-4.22328e-311
-4.6664e-311
4.86302e-313
2.86902e-311
3.21494e-311
2.71444e-311
3.21107e-311
5.38456e-311
3.55465e-311
3.2959e-311
2.79347e-311
1.39968e-311
1.55133e-311
2.29828e-311
3.17648e-311
1.21307e-311
-3.66481e-312
-1.92814e-311
-1.95725e-311
-9.04945e-312
-2.00597e-311
-2.07078e-311
-1.47325e-311
-2.25504e-311
-4.00989e-311
-4.50446e-311
-2.883e-311
-1.87293e-311
4.57245e-312
-1.34566e-311
-7.51174e-312
9.12826e-312
2.06158e-311
6.54418e-313
-3.77257e-312
3.26268e-311
2.95927e-311
3.44433e-311
1.17147e-312
2.63689e-312
-2.51049e-311
-3.31655e-311
-8.8511e-312
-2.44827e-311
-2.02221e-311
2.51187e-312
1.47753e-311
1.91153e-311
-1.11519e-311
-2.92486e-311
-1.40562e-311
-2.29436e-311
-9.03446e-312
-1.05787e-311
-1.11528e-311
-2.5473e-312
-3.85588e-312
-2.16806e-311
-1.45649e-311
-2.31544e-312
-5.54017e-313
-6.61508e-312
1.99316e-311
6.515e-312
1.7359e-311
1.12844e-311
2.85537e-312
-5.98425e-312
6.38489e-312
-4.93888e-312
-4.34505e-312
5.91204e-313
2.80892e-312
1.15999e-311
1.17062e-311
2.52491e-311
1.3567e-311
4.01978e-311
-1.45179e-310
-8.08892e-311
-7.16615e-311
-4.97306e-311
3.21015e-312
1.64604e-311
3.03677e-311
3.14104e-311
2.59149e-311
4.27056e-311
3.95251e-311
3.79234e-311
3.26469e-311
3.96347e-311
7.45953e-312
5.21103e-312
1.78103e-311
1.67182e-311
4.58215e-312
-9.01768e-312
-1.4797e-311
-1.44779e-311
1.00887e-312
-3.76973e-312
-7.98965e-312
-2.58053e-311
-5.82359e-311
-5.23702e-311
-3.74403e-311
-3.99349e-311
-1.11962e-311
-2.48992e-311
-1.46839e-311
1.22201e-311
-1.43509e-312
-2.34158e-312
-4.73906e-312
4.77476e-311
2.22842e-311
3.61616e-311
1.18652e-311
1.21733e-311
-3.45106e-311
-3.77938e-311
-1.10279e-311
-1.14733e-311
-5.83566e-312
1.28204e-311
2.22211e-311
3.63689e-311
3.53496e-312
-1.01334e-311
-1.77003e-311
-1.0043e-311
-5.94475e-312
-5.91302e-312
1.36435e-311
3.409e-312
-1.31859e-311
-2.08355e-311
-8.48326e-312
-1.05919e-311
-2.46225e-311
-8.31259e-312
2.23584e-311
5.52182e-312
-4.71169e-312
-1.79496e-311
-2.94832e-311
-2.63941e-311
-2.52133e-311
-2.96781e-311
-6.45174e-312
-1.60111e-312
1.49817e-311
3.02494e-311
3.86352e-311
-8.09202e-312
2.18117e-311
4.07831e-311
-1.41202e-310
-5.85422e-311
-3.01248e-311
-3.34125e-311
-3.38964e-312
1.17359e-311
2.43164e-311
1.45125e-311
1.15134e-311
3.37121e-311
4.07308e-311
4.97564e-311
5.80247e-311
4.11035e-311
6.2348e-312
1.24809e-311
1.16074e-311
1.63619e-311
1.37326e-311
1.61103e-312
-2.06349e-311
-2.15583e-311
6.70571e-313
-4.54249e-312
-1.51213e-312
-3.07163e-311
-6.79429e-311
-5.56587e-311
-5.77373e-311
-5.03622e-311
-1.2156e-311
-3.36888e-311
-1.8294e-311
1.14709e-311
7.23642e-312
4.22626e-312
6.16025e-312
5.32611e-311
1.57599e-311
3.9295e-312
1.37542e-311
-4.26406e-312
-3.07015e-311
-2.61099e-311
2.30496e-312
-1.32614e-311
-5.3778e-312
2.33974e-311
3.49569e-311
2.1237e-311
7.32682e-313
5.12516e-312
-1.45131e-311
7.74666e-312
-3.41526e-312
1.4473e-311
2.55399e-311
2.11628e-312
-6.92595e-312
-2.10029e-311
3.20989e-312
-1.66582e-311
-5.01637e-311
-2.62159e-311
1.16489e-311
5.0556e-312
-1.26285e-311
-4.73473e-311
-3.75695e-311
-2.90059e-311
-3.82809e-311
-2.4613e-311
-5.97388e-312
2.63705e-311
1.62584e-311
5.70834e-312
2.37985e-311
-7.71343e-312
1.22203e-311
1.24723e-311
-1.26823e-310
-1.07354e-310
-7.23096e-311
-3.65823e-311
2.1799e-311
2.70435e-311
3.75837e-311
2.53089e-311
4.66677e-311
3.09877e-311
4.21302e-311
5.92155e-311
6.05704e-311
4.47724e-311
2.17281e-311
1.66175e-311
-7.22391e-313
6.00512e-312
-1.4143e-312
-9.90276e-312
-1.73497e-311
-2.48252e-311
9.29915e-312
-6.4988e-313
-7.19666e-312
-2.73416e-311
-5.81208e-311
-5.46967e-311
-7.03224e-311
-5.13429e-311
-1.79494e-311
-3.35619e-311
-2.10389e-311
2.83631e-312
2.53434e-312
1.1039e-311
-6.26251e-312
6.20564e-311
3.498e-311
2.61131e-312
1.95071e-311
7.16637e-313
-5.09542e-311
-2.32526e-311
-2.52526e-312
-1.92787e-311
-2.20156e-311
2.38863e-311
4.79441e-311
2.49826e-311
2.13569e-311
1.98688e-311
-3.95958e-312
-4.13285e-312
-1.45702e-311
2.4523e-311
3.5389e-311
2.11616e-311
2.16921e-311
1.49328e-311
1.78379e-311
-8.19846e-312
-5.57352e-311
-4.10875e-311
-1.7157e-311
5.29585e-312
5.88424e-312
-4.13533e-311
-3.44823e-311
-4.97518e-311
-4.53225e-311
-3.33572e-311
-4.45628e-311
-2.03077e-311
-2.73721e-311
-2.54476e-311
-1.58426e-311
1.38879e-311
6.10184e-311
1.28679e-310
-1.36344e-310
-9.80106e-311
-8.98551e-311
-8.05281e-311
-5.47324e-312
4.12203e-311
6.35826e-311
7.12696e-311
6.1755e-311
2.42235e-311
3.99616e-311
5.13601e-311
5.74091e-311
6.19791e-311
4.92756e-311
2.52342e-311
1.21051e-311
-1.88272e-312
-1.88256e-311
-1.39299e-311
-1.53426e-311
-1.28452e-311
5.43532e-312
2.15173e-312
-4.25189e-312
-7.94651e-312
-4.17307e-311
-4.73619e-311
-4.99799e-311
-4.96601e-311
-2.73938e-311
-3.74265e-311
-3.51596e-311
2.62555e-312
1.76589e-311
-6.36656e-313
-6.55162e-313
5.29383e-311
2.80119e-311
-7.21218e-312
7.58177e-312
4.61137e-312
-5.66954e-311
-3.06082e-311
-2.4168e-311
-3.01351e-311
-2.01118e-311
2.42041e-311
5.2945e-311
4.44989e-311
4.11774e-311
4.78372e-311
3.01475e-311
7.24976e-312
-3.06045e-311
1.2356e-312
3.77271e-311
3.40302e-311
4.13053e-311
4.76174e-311
2.57425e-311
-1.72521e-311
-5.11288e-311
-3.11386e-311
-2.27205e-311
-2.4103e-311
-1.88008e-311
-3.6875e-311
-3.94472e-311
-6.13627e-311
-5.56357e-311
-5.94874e-311
-1.07845e-310
-8.82802e-311
-7.83347e-311
-6.91783e-311
-5.40474e-311
-5.8045e-311
-3.24385e-311
2.6026e-311
-1.33759e-310
-1.19406e-310
-7.56225e-311
-7.56354e-311
2.54864e-311
2.38164e-311
2.37569e-311
5.79908e-311
5.72381e-311
2.6704e-311
3.27005e-311
4.94911e-311
6.26618e-311
6.79966e-311
5.54342e-311
4.06907e-311
3.21479e-311
4.42203e-312
-1.31647e-311
-2.53742e-311
-2.87888e-311
-1.25602e-311
1.12013e-312
7.03092e-312
1.53127e-311
-1.61446e-311
-1.60136e-311
-3.74642e-311
-5.99402e-311
-5.03447e-311
-3.30923e-311
-3.19898e-311
-3.50276e-311
-7.04851e-312
2.66512e-311
1.32407e-311
7.70823e-312
4.75988e-311
4.15311e-311
1.80179e-312
1.99375e-313
-1.55718e-311
-8.46952e-311
-4.39515e-311
-3.30118e-311
-3.16461e-311
-2.69751e-311
1.59228e-311
6.27258e-311
3.92783e-311
7.31593e-311
9.04747e-311
8.32784e-311
4.12698e-311
-1.30066e-311
1.02272e-311
4.66784e-311
5.65762e-311
7.70328e-311
9.21837e-311
5.9259e-311
7.90513e-312
-2.22716e-311
-2.83153e-311
-2.93592e-311
-2.76656e-311
-2.13376e-311
-3.92583e-311
-4.70855e-311
-4.34359e-311
-5.13025e-311
-6.07675e-311
-1.23884e-310
-9.69717e-311
-8.42922e-311
-4.31728e-311
-1.14667e-311
-4.02222e-312
-5.96105e-311
-1.11143e-310
-1.07562e-310
-1.38608e-310
-5.30521e-311
-4.84295e-311
-1.10372e-311
-8.03065e-312
3.0538e-311
7.23629e-311
5.90705e-311
2.85159e-311
3.1261e-311
6.31672e-311
6.32041e-311
5.51054e-311
4.93011e-311
4.62519e-311
3.26324e-311
3.93564e-311
2.99945e-313
-1.54757e-311
-3.01944e-311
-7.15054e-312
-8.2678e-312
7.26074e-312
1.53426e-311
-5.50973e-312
-1.40134e-311
-4.84837e-311
-6.38127e-311
-5.53084e-311
-3.28837e-311
-3.95474e-311
-4.21122e-311
-1.64101e-311
2.89791e-311
2.08862e-311
9.88953e-312
2.50301e-311
2.77314e-311
2.85189e-311
-1.76808e-313
-1.33333e-311
-7.35928e-311
-5.45686e-311
-6.30859e-311
-5.82204e-311
-4.44793e-311
8.15758e-312
3.34696e-311
2.20708e-311
5.1033e-311
8.78342e-311
6.35068e-311
5.02861e-311
-5.05855e-312
-4.01867e-312
3.55933e-311
3.99288e-311
7.82454e-311
9.79279e-311
6.65775e-311
3.38648e-311
1.33915e-311
-2.06624e-311
-1.5557e-311
-9.80964e-312
-8.88721e-312
-2.59377e-311
-3.49732e-311
-4.16288e-311
-5.3333e-311
-8.30659e-311
-1.1137e-310
-1.04887e-310
-8.10186e-311
-3.64757e-311
-7.75447e-312
-1.39281e-311
-2.13204e-311
-5.39745e-311
-8.293e-311
-5.63017e-311
-1.51253e-310
-9.77744e-311
-5.24959e-311
-3.46913e-311
1.77522e-311
7.59775e-311
7.67617e-311
7.22847e-311
3.03659e-311
6.65447e-311
8.82232e-311
6.15745e-311
5.70675e-311
4.48345e-311
4.66329e-311
4.82701e-311
1.97027e-311
-7.47982e-312
-2.5362e-311
-7.96183e-312
-1.20202e-311
2.23035e-312
1.59744e-311
9.16359e-312
-1.19845e-311
-3.07804e-311
-6.30628e-311
-4.71704e-311
-2.95761e-311
-2.63698e-311
-3.61661e-311
-3.73086e-312
3.17443e-311
1.42012e-311
6.37722e-312
1.08238e-311
2.93876e-311
3.04553e-311
3.68965e-312
-1.10963e-311
-6.723e-311
-6.97649e-311
-6.02424e-311
-7.75247e-311
-5.83993e-311
-2.5551e-311
-6.98097e-312
-4.95595e-313
1.62507e-311
6.56446e-311
5.09723e-311
1.89279e-311
-2.75487e-311
-2.91114e-311
2.37251e-311
4.54059e-311
7.56054e-311
9.83282e-311
6.41905e-311
6.23919e-311
5.92177e-311
3.45091e-311
2.76087e-313
9.25596e-312
2.5813e-312
-4.85486e-312
-3.72004e-312
-2.55637e-311
-6.05161e-311
-1.07669e-310
-1.34495e-310
-1.80154e-310
-1.24219e-310
-1.03143e-310
-2.11415e-311
-2.21297e-311
1.34009e-311
3.62495e-311
8.69928e-312
-2.3852e-312
-1.03127e-310
-1.03881e-310
-2.33334e-311
-1.00099e-311
3.41286e-311
9.87361e-311
9.15988e-311
7.3143e-311
4.47328e-311
6.46357e-311
8.98134e-311
8.00281e-311
6.34574e-311
6.27977e-311
5.41296e-311
5.54326e-311
3.24768e-311
1.55693e-311
-7.4971e-312
-2.04206e-311
-2.95694e-311
-1.98634e-311
1.99239e-311
1.47842e-311
-4.69927e-312
-3.42781e-311
-4.03493e-311
-4.72705e-311
-4.24971e-311
-3.15234e-311
-4.00301e-311
1.13349e-311
4.82509e-311
1.86219e-311
2.1119e-311
1.69204e-311
2.34799e-311
5.53163e-311
1.1165e-311
-3.53766e-312
-6.05409e-311
-8.18312e-311
-7.10698e-311
-8.22027e-311
-6.80854e-311
-4.81919e-311
-2.60163e-311
-2.87169e-311
4.99488e-312
4.85507e-311
4.42327e-311
-3.09869e-312
-4.5818e-311
-6.34678e-311
-1.31671e-311
2.04326e-311
5.32194e-311
6.48269e-311
7.54022e-311
9.01156e-311
1.0475e-310
7.36086e-311
1.79171e-311
2.72735e-311
1.49104e-311
1.56383e-311
5.6225e-311
3.67213e-311
-9.33441e-312
-9.25256e-311
-1.4019e-310
-1.96029e-310
-1.5237e-310
-1.1877e-310
-3.29753e-311
-2.35537e-311
1.66535e-311
1.76317e-311
3.11289e-311
-4.74879e-311
-9.34192e-311
-1.0353e-310
-5.02569e-311
-1.09234e-312
4.11334e-311
1.07221e-310
1.00818e-310
1.15487e-310
6.80879e-311
9.06697e-311
1.0338e-310
9.66862e-311
8.02295e-311
7.3439e-311
5.02617e-311
6.05875e-311
4.41191e-311
2.65988e-311
1.17213e-311
-6.94525e-312
-1.48488e-311
-6.57498e-312
3.23099e-311
3.19182e-311
2.19762e-311
-1.74256e-311
-1.85646e-311
-3.87037e-311
-5.72876e-311
-3.68582e-311
-4.67092e-311
1.64221e-312
4.14509e-311
1.87582e-311
7.43908e-312
-8.68366e-312
7.54487e-312
3.89864e-311
-2.04676e-312
5.17554e-312
-5.85126e-311
-7.73626e-311
-6.52445e-311
-8.52827e-311
-8.27608e-311
-6.22204e-311
-4.64018e-311
-1.24857e-311
4.72665e-312
3.56069e-311
3.4786e-311
6.62583e-312
-5.70461e-311
-9.37261e-311
-7.75797e-311
-2.37414e-311
1.82705e-311
1.66977e-311
4.3578e-311
6.36562e-311
8.99672e-311
5.57092e-311
2.99066e-311
2.67779e-311
1.26851e-311
5.52192e-311
1.2234e-310
1.21894e-310
9.66322e-311
3.16712e-312
-5.83042e-311
-1.3077e-310
-1.32364e-310
-7.87983e-311
-5.31972e-311
-2.02692e-311
-2.89317e-311
2.92575e-311
-2.45664e-311
-7.44365e-311
-5.36142e-311
-8.83587e-313
1.75018e-311
4.70505e-311
4.81236e-311
1.1176e-310
1.04219e-310
1.1083e-310
9.0025e-311
1.1956e-310
1.12736e-310
1.16273e-310
1.19458e-310
9.96913e-311
7.38833e-311
7.39589e-311
4.58675e-311
3.28497e-311
1.7347e-311
1.07834e-312
-1.55484e-311
4.82002e-312
3.52414e-311
2.45563e-311
3.18762e-311
-2.02002e-311
-1.34035e-311
-2.00763e-311
-6.26948e-311
-5.06391e-311
-3.77792e-311
1.77661e-312
3.31637e-311
3.33826e-311
3.89167e-312
3.19414e-312
9.20838e-312
2.75371e-311
-3.19974e-312
1.31765e-311
-5.33987e-311
-7.41169e-311
-5.38591e-311
-8.97928e-311
-8.53437e-311
-6.92856e-311
-4.9232e-311
-2.92912e-311
6.56451e-312
3.53398e-311
4.93898e-311
1.55452e-311
-2.52384e-311
-9.74705e-311
-9.52821e-311
-4.55076e-311
3.54856e-312
-2.51617e-311
-1.38978e-311
3.35196e-311
5.16485e-311
1.62023e-311
-1.94423e-311
-2.84e-311
-3.61816e-311
3.33072e-311
1.48211e-310
2.06797e-310
2.35699e-310
1.34232e-310
9.01814e-311
-2.22171e-311
-6.12823e-312
-1.23028e-311
-1.14962e-311
3.29772e-311
4.34328e-311
2.03294e-311
-8.36838e-311
-8.89621e-311
-1.18219e-311
3.59726e-311
2.58302e-311
6.69446e-311
5.24802e-311
7.22055e-311
7.36064e-311
1.07423e-310
1.06073e-310
1.18478e-310
1.2283e-310
1.24834e-310
1.09567e-310
9.49629e-311
8.48438e-311
7.89011e-311
7.4701e-311
4.67226e-311
2.63756e-311
8.9739e-312
-1.57133e-312
2.75102e-312
1.77104e-311
2.82874e-311
2.90006e-311
-3.20832e-311
-2.50892e-311
-1.18641e-311
-5.80168e-311
-5.09432e-311
-4.70789e-311
-6.45762e-312
2.46233e-311
1.82889e-311
2.05198e-311
-2.83808e-312
-1.05893e-312
2.28774e-311
8.3534e-312
1.00221e-311
-4.99997e-311
-6.79016e-311
-6.8534e-311
-1.00239e-310
-7.29279e-311
-7.43019e-311
-5.2893e-311
-3.26056e-311
-6.61362e-312
5.01117e-311
7.36411e-311
4.79868e-311
-1.89712e-312
-7.98006e-311
-7.34429e-311
-3.17954e-311
-2.06248e-311
-3.12897e-311
-1.16608e-311
7.3449e-312
2.64339e-311
-2.45058e-311
-5.53709e-311
-1.32769e-310
-1.21386e-310
-4.09082e-311
9.08981e-311
1.96285e-310
2.82669e-310
2.26845e-310
2.21694e-310
1.5749e-310
1.23035e-310
1.00886e-310
2.27651e-311
4.90288e-311
7.67691e-311
1.54596e-310
-2.95437e-311
-5.23784e-311
-5.46898e-312
2.64044e-311
2.81864e-311
2.52692e-311
2.42441e-311
6.15363e-311
5.29086e-311
1.24084e-310
1.3451e-310
1.26629e-310
1.48024e-310
1.29828e-310
1.02546e-310
9.31017e-311
6.63025e-311
6.51533e-311
9.18296e-311
4.90265e-311
4.56407e-311
-1.32035e-312
2.02274e-312
3.78041e-312
8.7618e-312
3.42591e-311
2.8186e-311
-2.14085e-311
-2.27834e-311
-3.04602e-311
-3.86298e-311
-5.96361e-311
-4.75404e-311
1.43951e-312
2.04942e-311
2.64552e-311
3.00979e-311
1.37745e-311
-3.60839e-312
1.69505e-312
1.33701e-311
-2.41335e-312
-4.71884e-311
-7.39866e-311
-8.00838e-311
-7.70919e-311
-8.70964e-311
-9.26584e-311
-7.36116e-311
-6.25291e-311
-3.48671e-311
2.65104e-311
9.06494e-311
8.08206e-311
1.4497e-311
-6.03723e-311
-7.1162e-311
-2.71143e-311
-1.89075e-311
4.52768e-312
-1.9639e-311
3.23584e-311
1.81965e-311
-4.43749e-311
-9.54125e-311
-1.76565e-310
-1.84825e-310
-1.26627e-310
-1.69616e-311
1.06866e-310
2.55843e-310
2.56884e-310
2.84025e-310
2.77819e-310
1.97692e-310
2.40137e-310
1.86764e-310
1.58854e-310
1.32561e-310
2.09219e-310
-6.1149e-311
-7.49938e-311
-2.12295e-311
-4.89261e-311
-3.10786e-311
-4.47731e-312
2.43982e-311
6.29034e-311
8.78525e-311
1.14505e-310
1.35805e-310
1.3034e-310
1.23781e-310
1.39205e-310
1.0398e-310
7.53261e-311
8.50984e-311
9.63683e-311
1.0769e-310
8.87626e-311
5.32332e-311
7.9479e-312
1.90868e-311
1.83207e-311
1.08009e-311
3.2785e-311
4.69731e-311
-9.46322e-312
-2.44249e-311
-1.82906e-311
-3.18408e-311
-5.27652e-311
-3.31122e-311
-9.12101e-312
2.71379e-311
3.59862e-311
3.66301e-311
8.54006e-312
-2.01603e-312
1.38551e-311
1.01149e-311
2.93322e-312
-3.7712e-311
-6.49907e-311
-6.66328e-311
-8.07759e-311
-6.58071e-311
-7.15508e-311
-8.22842e-311
-9.85666e-311
-9.9288e-311
-9.71019e-312
6.05765e-311
1.18675e-310
6.3636e-311
-2.84316e-311
-8.05559e-311
-2.96151e-311
1.26654e-312
1.53282e-311
1.6211e-311
5.4273e-311
5.22735e-311
-1.33922e-311
-9.5581e-311
-1.90839e-310
-2.64517e-310
-2.26839e-310
-1.80489e-310
-1.71776e-311
1.37084e-310
2.03314e-310
2.99347e-310
3.04588e-310
2.36125e-310
2.40973e-310
2.06377e-310
1.75198e-310
9.77776e-311
8.66868e-311
-1.03642e-310
-1.15556e-310
-1.1186e-310
-1.39706e-310
-9.59851e-311
1.22456e-311
4.93566e-311
4.98991e-311
5.27645e-311
1.39734e-310
1.339e-310
1.41888e-310
1.04132e-310
1.29691e-310
1.17571e-310
8.69431e-311
9.03436e-311
9.8143e-311
1.22743e-310
1.02629e-310
6.04074e-311
3.17268e-311
3.37775e-311
5.53893e-311
4.70959e-311
4.34681e-311
4.75239e-311
1.96151e-311
-3.41854e-313
-1.85942e-311
-4.26842e-311
-6.99037e-311
-4.83667e-311
-2.87348e-311
2.14599e-311
3.87789e-311
3.68721e-311
4.27364e-312
-1.78256e-311
1.29515e-311
1.57999e-311
1.20118e-311
-1.87227e-311
-3.19152e-311
-4.19811e-311
-3.24659e-311
-2.97951e-311
-3.36587e-311
-6.58925e-311
-1.04367e-310
-1.39202e-310
-5.93359e-311
4.59519e-311
1.22729e-310
9.75652e-311
-4.6841e-312
-1.01375e-310
-8.013e-311
-2.70549e-311
2.29949e-311
6.74179e-312
6.57508e-311
1.13529e-310
7.08598e-311
-1.26362e-311
-1.73026e-310
-3.18528e-310
-3.31429e-310
-3.09655e-310
-2.00092e-310
-4.30424e-311
7.11962e-311
1.84153e-310
2.49945e-310
2.01814e-310
1.89891e-310
1.40287e-310
1.10521e-310
2.17975e-311
4.76955e-313
3.90696e-313
-9.26307e-311
-1.28554e-310
-1.58792e-310
-1.33479e-310
1.17649e-311
4.52629e-311
1.64922e-311
4.64632e-311
1.21507e-310
1.48825e-310
1.44395e-310
1.1343e-310
1.06462e-310
1.35384e-310
9.66254e-311
8.73783e-311
1.05622e-310
1.38413e-310
1.20527e-310
8.33408e-311
4.47989e-311
2.50079e-311
6.92034e-311
6.00555e-311
4.41331e-311
2.86917e-311
1.2389e-311
3.14038e-313
-1.97198e-311
-4.71145e-311
-5.62234e-311
-3.75698e-311
-2.26889e-311
1.16945e-311
3.63418e-311
2.58211e-311
-1.64194e-311
-2.00958e-311
1.48136e-311
2.34186e-311
2.56748e-311
-8.99734e-312
-2.2847e-311
-2.1419e-311
1.46337e-312
-9.45939e-312
-1.02292e-311
-4.56203e-311
-1.13835e-310
-1.7818e-310
-1.0604e-310
6.77479e-312
1.07053e-310
1.23731e-310
2.53101e-311
-1.1249e-310
-1.32542e-310
-6.81754e-311
-2.26901e-311
-2.10785e-311
5.65555e-311
1.59013e-310
1.48849e-310
7.63105e-311
-9.55506e-311
-2.88699e-310
-3.65666e-310
-4.14523e-310
-3.76951e-310
-2.53875e-310
-1.11862e-310
2.15419e-311
1.56628e-310
1.36132e-310
1.37616e-310
7.11009e-311
8.54068e-312
-2.18387e-311
-1.41825e-310
5.89236e-311
-1.13252e-311
-3.99155e-311
-1.36119e-310
-1.5506e-310
-4.19536e-311
3.07989e-311
-4.06768e-313
3.71172e-311
1.4437e-310
1.52994e-310
1.35214e-310
8.44949e-311
8.24411e-311
1.16836e-310
1.02106e-310
8.56242e-311
1.25239e-310
1.23101e-310
1.21617e-310
8.8608e-311
6.71014e-311
4.15252e-311
7.63619e-311
7.98362e-311
5.85231e-311
2.50195e-311
7.89879e-312
-2.66045e-312
-1.0367e-311
-4.49777e-311
-5.25741e-311
-4.3159e-311
-1.7448e-311
1.11619e-312
3.76746e-311
1.62872e-311
-2.47335e-311
-3.78905e-311
9.1722e-312
2.9272e-311
4.12802e-311
-1.7678e-312
-2.33667e-312
8.21505e-312
2.50394e-311
7.91424e-312
1.60227e-311
1.97335e-312
-8.2941e-311
-1.75825e-310
-1.36891e-310
-3.69561e-311
8.2214e-311
1.35624e-310
4.99212e-311
-9.22525e-311
-1.66114e-310
-1.12487e-310
-5.61532e-311
-2.57598e-311
7.21161e-311
1.69991e-310
2.31504e-310
1.80853e-310
-1.03499e-311
-2.26023e-310
-3.35954e-310
-4.68702e-310
-4.43951e-310
-3.87369e-310
-2.60223e-310
-8.04204e-311
2.80248e-311
-7.99274e-313
2.38225e-311
-2.82285e-311
-2.02542e-311
-6.68617e-312
3.44216e-311
1.5556e-310
1.53592e-311
1.49487e-311
-9.26309e-311
-1.47937e-310
-8.58275e-311
-3.8047e-312
-4.52865e-311
4.85152e-311
1.59849e-310
1.76603e-310
1.46148e-310
1.05907e-310
9.53276e-311
1.26246e-310
9.88694e-311
1.05667e-310
1.0786e-310
1.29096e-310
1.22865e-310
5.87504e-311
4.7408e-311
5.11062e-311
9.85453e-311
9.1197e-311
6.32129e-311
3.61188e-311
5.28822e-312
-2.78534e-312
5.22056e-312
-2.97971e-311
-5.88858e-311
-3.75827e-311
-1.98808e-311
6.47497e-312
2.85829e-311
5.47386e-312
-3.33707e-311
-2.65864e-311
1.37439e-311
3.70739e-311
5.52472e-311
2.66648e-311
2.57214e-311
1.27325e-311
2.77455e-311
1.31456e-311
5.78283e-311
2.90253e-311
-2.36417e-311
-1.52283e-310
-1.74414e-310
-6.34011e-311
5.58904e-311
1.19446e-310
7.42342e-311
-7.22579e-311
-1.95592e-310
-1.66917e-310
-8.49283e-311
-7.21303e-311
3.18208e-311
1.37884e-310
2.79213e-310
2.93975e-310
1.25519e-310
-1.12821e-310
-2.78985e-310
-4.33999e-310
-4.56304e-310
-4.22604e-310
-3.42774e-310
-2.17608e-310
-1.27316e-310
-1.01e-310
-5.76524e-311
-1.15815e-310
-8.59552e-311
-6.10754e-311
5.00176e-311
1.42392e-310
9.3755e-311
4.24098e-311
-4.96706e-311
-1.57282e-310
-1.21487e-310
-8.46223e-311
-1.01968e-310
-8.96836e-312
8.60501e-311
1.51738e-310
1.48752e-310
1.09574e-310
9.14697e-311
1.14853e-310
8.44524e-311
9.98144e-311
1.36562e-310
1.41847e-310
1.22996e-310
3.32238e-311
2.72393e-311
6.4832e-311
9.81266e-311
9.47505e-311
6.97848e-311
4.7024e-311
7.5335e-312
-2.81497e-311
2.80467e-312
-4.01849e-311
-4.78605e-311
-2.68583e-311
-2.38832e-311
1.6288e-311
3.65215e-311
1.51029e-311
-2.94935e-311
-3.27798e-311
2.42558e-312
8.60694e-312
4.03859e-311
3.98464e-311
5.04359e-311
2.70278e-311
3.18611e-311
3.3327e-311
9.22306e-311
8.8392e-311
1.13059e-311
-1.2348e-310
-1.84003e-310
-1.29959e-310
1.92826e-311
1.23368e-310
1.17775e-310
-3.05518e-311
-1.82062e-310
-2.03134e-310
-1.41307e-310
-1.07674e-310
-3.46086e-311
1.00305e-310
2.9548e-310
3.79997e-310
2.75723e-310
5.31859e-311
-1.68293e-310
-3.58848e-310
-4.28657e-310
-4.36202e-310
-4.52201e-310
-3.79492e-310
-2.63417e-310
-2.08436e-310
-1.57428e-310
-1.87275e-310
-1.21713e-310
-1.61654e-310
-9.71116e-311
1.24391e-310
4.91963e-311
1.85893e-311
-4.14896e-311
-1.35527e-310
-1.43804e-310
-1.04536e-310
-1.01145e-310
-4.25936e-311
1.95021e-311
8.61707e-311
1.30684e-310
1.06416e-310
7.41942e-311
1.00897e-310
8.67429e-311
1.02116e-310
1.36109e-310
1.51152e-310
1.19711e-310
3.96697e-311
1.24857e-311
4.00422e-311
6.69455e-311
7.33645e-311
7.21933e-311
5.87165e-311
4.97958e-312
-2.94675e-311
-2.37033e-311
-4.24418e-311
-4.05056e-311
-1.84707e-311
-1.56642e-311
1.97259e-311
4.32772e-311
2.80035e-311
-1.97021e-311
-4.15104e-311
-1.34915e-311
8.46936e-312
4.20268e-311
2.65921e-311
5.15456e-311
3.8693e-311
3.94966e-311
4.48488e-311
1.11784e-310
1.03091e-310
4.33233e-311
-8.31537e-311
-1.70451e-310
-1.79745e-310
-1.53384e-311
1.23783e-310
1.46851e-310
1.39382e-311
-1.42756e-310
-2.15296e-310
-1.80671e-310
-1.60387e-310
-1.02141e-310
3.1222e-311
2.49173e-310
4.23005e-310
3.91899e-310
2.08429e-310
-9.18399e-312
-2.54951e-310
-3.34258e-310
-4.26177e-310
-4.50695e-310
-4.2517e-310
-3.02294e-310
-3.14569e-310
-2.38376e-310
-2.17872e-310
-1.40158e-310
-1.41459e-310
-5.1155e-311
2.04482e-310
5.12565e-311
3.5054e-311
-6.73176e-311
-1.13908e-310
-1.821e-310
-1.48257e-310
-9.88846e-311
-7.2346e-311
-9.32455e-312
8.32099e-311
1.0165e-310
8.95868e-311
7.00565e-311
7.71857e-311
9.01015e-311
8.78111e-311
1.26763e-310
1.22648e-310
8.64869e-311
3.36637e-311
4.62294e-312
2.82619e-311
5.93336e-311
5.55153e-311
7.42136e-311
6.04328e-311
9.88046e-312
-3.60556e-311
-2.57031e-311
-4.82564e-311
-3.45865e-311
-7.40974e-312
-7.98514e-312
2.47896e-311
4.49631e-311
2.14037e-311
-2.8474e-311
-3.59357e-311
-1.96834e-311
2.1251e-313
2.34002e-311
4.87033e-311
5.62528e-311
5.49512e-311
2.0876e-311
4.52587e-311
1.02876e-310
1.1474e-310
8.58356e-311
-5.10718e-311
-1.66852e-310
-1.93777e-310
-4.85451e-311
1.31573e-310
1.86736e-310
8.96426e-311
-8.89951e-311
-1.98915e-310
-2.21305e-310
-2.03696e-310
-1.83803e-310
-5.66104e-311
1.69434e-310
4.21346e-310
4.6131e-310
3.7038e-310
1.59865e-310
-5.45409e-311
-1.61088e-310
-3.04724e-310
-3.85239e-310
-4.18459e-310
-2.77806e-310
-2.76326e-310
-2.4859e-310
-1.68413e-310
-8.90747e-311
2.81382e-311
9.49493e-311
2.45141e-310
1.67253e-310
8.15772e-311
-9.65458e-313
-8.20912e-311
-2.34878e-310
-2.10372e-310
-1.66303e-310
-1.21089e-310
-5.34157e-311
6.268e-311
9.1727e-311
6.20413e-311
7.23831e-311
8.21608e-311
1.00923e-310
1.11622e-310
9.53125e-311
1.0999e-310
6.91646e-311
3.24463e-311
2.77794e-311
3.41144e-311
7.33107e-311
3.57677e-311
5.3198e-311
3.40753e-311
-1.17366e-311
-3.96768e-311
-4.13719e-311
-3.18439e-311
-3.53446e-311
-5.16684e-312
9.45942e-312
3.72871e-311
3.60907e-311
1.62669e-311
-4.44405e-311
-2.656e-311
-6.32635e-312
2.24882e-311
1.19279e-311
6.29481e-311
6.98771e-311
4.94913e-311
-1.67262e-311
3.91771e-311
9.96039e-311
1.28286e-310
1.18634e-310
3.01703e-311
-1.48053e-310
-2.13598e-310
-7.66678e-311
1.10568e-310
2.07347e-310
1.49769e-310
-2.34403e-311
-1.79529e-310
-2.30348e-310
-2.45046e-310
-2.64766e-310
-1.82185e-310
4.52324e-311
3.65544e-310
4.9319e-310
4.68834e-310
3.06668e-310
1.40919e-310
2.98238e-311
-1.37787e-310
-2.47262e-310
-3.11826e-310
-2.48873e-310
-1.63526e-310
-1.6805e-310
-1.06638e-310
-5.31054e-311
2.805e-311
1.75707e-310
2.32578e-310
2.61367e-310
1.63457e-310
1.40164e-310
2.30717e-311
-1.83637e-310
-2.13449e-310
-1.68307e-310
-1.43411e-310
-6.07935e-311
3.82301e-311
8.31277e-311
5.55218e-311
4.34189e-311
8.19537e-311
1.06413e-310
1.09648e-310
7.97896e-311
9.43531e-311
6.98349e-311
8.83952e-312
1.45849e-311
2.40357e-311
6.71068e-311
4.54496e-311
4.48913e-311
7.18991e-312
4.09266e-312
-3.46903e-311
-4.46179e-311
-2.15357e-311
-3.01449e-311
-1.48391e-311
3.1056e-312
1.97322e-311
4.22735e-311
1.86109e-311
-3.63678e-311
-3.76013e-311
-3.88389e-311
6.62261e-312
7.23301e-312
6.7651e-311
8.55501e-311
4.06005e-311
-3.0689e-311
2.64738e-311
1.2363e-310
1.59352e-310
1.66526e-310
8.93632e-311
-1.20022e-310
-2.02017e-310
-1.04092e-310
7.90951e-311
2.31711e-310
2.21193e-310
2.76184e-311
-1.30596e-310
-2.20627e-310
-2.78536e-310
-3.22183e-310
-2.84365e-310
-1.09337e-310
2.75602e-310
4.97707e-310
5.37372e-310
4.47782e-310
3.28621e-310
2.10263e-310
6.18345e-311
-4.40243e-311
-1.2977e-310
-8.43677e-311
-4.71167e-312
-1.53615e-311
8.82209e-311
1.16862e-310
1.52891e-310
1.01374e-310
1.45465e-310
1.50711e-310
2.10845e-310
1.41811e-310
1.08931e-310
-6.11034e-311
-9.69098e-311
-1.6446e-310
-1.41705e-310
-7.15411e-311
1.4617e-311
6.5501e-311
4.08178e-311
1.74231e-311
7.38183e-311
7.64774e-311
1.21247e-310
8.81962e-311
8.77349e-311
6.66118e-311
3.07384e-311
2.57987e-311
3.57995e-311
4.90666e-311
3.27477e-311
3.44683e-311
1.97269e-311
-1.35583e-311
-4.21825e-311
-4.06163e-311
-2.93929e-311
-2.09376e-311
-2.25896e-311
6.97616e-312
5.69303e-312