/*--------------------------------*- C++ -*----------------------------------*\
  =========                 |
  \\      /  F ield         | OpenFOAM: The Open Source CFD Toolbox
   \\    /   O peration     | Website:  https://openfoam.org
    \\  /    A nd           | Version:  11
     \\/     M anipulation  |
\*---------------------------------------------------------------------------*/
FoamFile
{
    format      ascii;
    class       volScalarField;
    location    "20";
    object      C;
}
// * * * * * * * * * * * * * * * * * * * * * * * * * * * * * * * * * * * * * //

dimensions      [0 0 0 1 0 0 0];

internalField   nonuniform List<scalar> 
427520
(
4.95065e-68
4.85821e-68
4.70239e-68
4.50255e-68
4.27275e-68
4.02374e-68
3.76397e-68
3.50018e-68
3.23767e-68
2.9806e-68
2.73215e-68
2.49466e-68
2.26978e-68
2.05859e-68
1.86168e-68
1.67927e-68
1.51126e-68
1.35732e-68
1.21693e-68
1.08947e-68
9.74193e-69
8.70333e-69
7.77082e-69
6.93634e-69
6.19195e-69
5.53001e-69
4.94325e-69
4.42481e-69
3.96834e-69
3.568e-69
3.21844e-69
2.91485e-69
2.65292e-69
2.42885e-69
2.23931e-69
2.08142e-69
1.95276e-69
1.85133e-69
1.77553e-69
1.72416e-69
1.69638e-69
1.69176e-69
1.71021e-69
1.75199e-69
1.81776e-69
1.9085e-69
2.0256e-69
2.17079e-69
2.34622e-69
2.55441e-69
2.79828e-69
3.08117e-69
3.4068e-69
3.77933e-69
4.2033e-69
4.68361e-69
5.22551e-69
5.83454e-69
6.51645e-69
7.27711e-69
8.12238e-69
9.05794e-69
1.00891e-68
1.12205e-68
1.24559e-68
1.37977e-68
1.52466e-68
1.68011e-68
1.84566e-68
2.02053e-68
2.2035e-68
2.39284e-68
2.58622e-68
2.78058e-68
2.97199e-68
3.1555e-68
3.32488e-68
3.4722e-68
3.58709e-68
3.65526e-68
1.52765e-67
1.50613e-67
1.46759e-67
1.41588e-67
1.35428e-67
1.28561e-67
1.21224e-67
1.13619e-67
1.05913e-67
9.82431e-68
9.07194e-68
8.34288e-68
7.64375e-68
6.97937e-68
6.353e-68
5.76665e-68
5.22123e-68
4.71679e-68
4.25268e-68
3.82774e-68
3.44036e-68
3.08869e-68
2.77067e-68
2.48414e-68
2.22689e-68
1.99674e-68
1.79156e-68
1.60929e-68
1.448e-68
1.30587e-68
1.18122e-68
1.07253e-68
9.78397e-69
8.97595e-69
8.29029e-69
7.71749e-69
7.24946e-69
6.87948e-69
6.60217e-69
6.41342e-69
6.3104e-69
6.29152e-69
6.35641e-69
6.5059e-69
6.74204e-69
7.06808e-69
7.48845e-69
8.00883e-69
8.63609e-69
9.37831e-69
1.02448e-68
1.1246e-68
1.23937e-68
1.37005e-68
1.51801e-68
1.68473e-68
1.87172e-68
2.08057e-68
2.31286e-68
2.57016e-68
2.85396e-68
3.1656e-68
3.50625e-68
3.87674e-68
4.27755e-68
4.70862e-68
5.16927e-68
5.65803e-68
6.17247e-68
6.70905e-68
7.26289e-68
7.8276e-68
8.39505e-68
8.95512e-68
9.4955e-68
1.00014e-67
1.04552e-67
1.08363e-67
1.11203e-67
1.12789e-67
2.6479e-67
2.61583e-67
2.55715e-67
2.47692e-67
2.37977e-67
2.26986e-67
2.1509e-67
2.02611e-67
1.89826e-67
1.76971e-67
1.6424e-67
1.51793e-67
1.39755e-67
1.28223e-67
1.17266e-67
1.06935e-67
9.72563e-68
8.82449e-68
7.99006e-68
7.2213e-68
6.51636e-68
5.87276e-68
5.2876e-68
4.75764e-68
4.2795e-68
3.84972e-68
3.46484e-68
3.12151e-68
2.81647e-68
2.54666e-68
2.30921e-68
2.10148e-68
1.92104e-68
1.76571e-68
1.63356e-68
1.5229e-68
1.43227e-68
1.36047e-68
1.3065e-68
1.26964e-68
1.24934e-68
1.24532e-68
1.25749e-68
1.28599e-68
1.33117e-68
1.39359e-68
1.47405e-68
1.57351e-68
1.69319e-68
1.83449e-68
1.99901e-68
2.18854e-68
2.40507e-68
2.65072e-68
2.92777e-68
3.23861e-68
3.5857e-68
3.97152e-68
4.39849e-68
4.86893e-68
5.38494e-68
5.94829e-68
6.56033e-68
7.22176e-68
7.93256e-68
8.69172e-68
9.49707e-68
1.0345e-67
1.12304e-67
1.21461e-67
1.30829e-67
1.4029e-67
1.497e-67
1.58887e-67
1.67646e-67
1.75738e-67
1.82893e-67
1.88803e-67
1.93126e-67
1.95489e-67
3.89514e-67
3.85267e-67
3.77409e-67
3.66553e-67
3.5328e-67
3.38126e-67
3.21581e-67
3.04081e-67
2.86013e-67
2.67708e-67
2.49451e-67
2.31477e-67
2.13978e-67
1.97107e-67
1.8098e-67
1.65681e-67
1.51268e-67
1.37772e-67
1.25208e-67
1.13572e-67
1.02848e-67
9.30101e-68
8.40231e-68
7.58473e-68
6.8439e-68
6.17522e-68
5.57404e-68
5.03572e-68
4.55574e-68
4.12975e-68
3.75366e-68
3.42365e-68
3.1362e-68
2.88812e-68
2.67654e-68
2.49897e-68
2.35323e-68
2.2375e-68
2.1503e-68
2.0905e-68
2.0573e-68
2.05023e-68
2.06914e-68
2.11423e-68
2.18599e-68
2.28524e-68
2.41312e-68
2.57105e-68
2.76079e-68
2.98435e-68
3.24404e-68
3.54242e-68
3.88227e-68
4.2666e-68
4.69856e-68
5.1814e-68
5.71843e-68
6.31289e-68
6.9679e-68
7.68631e-68
8.47057e-68
9.32257e-68
1.02434e-67
1.12333e-67
1.22913e-67
1.34147e-67
1.45995e-67
1.58394e-67
1.71257e-67
1.84474e-67
1.97902e-67
2.11367e-67
2.24661e-67
2.37538e-67
2.49714e-67
2.60868e-67
2.70639e-67
2.78632e-67
2.84418e-67
2.87546e-67
5.30851e-67
5.25496e-67
5.15526e-67
5.01665e-67
4.84613e-67
4.65027e-67
4.43514e-67
4.20628e-67
3.96864e-67
3.72655e-67
3.48377e-67
3.2435e-67
3.00836e-67
2.7805e-67
2.5616e-67
2.35293e-67
2.15539e-67
1.96958e-67
1.79581e-67
1.63416e-67
1.48454e-67
1.34671e-67
1.22028e-67
1.10482e-67
9.99791e-68
9.04648e-68
8.18806e-68
7.4168e-68
6.72691e-68
6.11275e-68
5.56897e-68
5.09051e-68
4.67269e-68
4.31123e-68
4.00227e-68
3.74241e-68
3.52869e-68
3.35862e-68
3.23015e-68
3.14173e-68
3.09221e-68
3.08094e-68
3.10769e-68
3.17269e-68
3.27659e-68
3.42046e-68
3.60581e-68
3.83455e-68
4.10897e-68
4.43175e-68
4.80592e-68
5.2348e-68
5.72203e-68
6.27144e-68
6.88703e-68
7.5729e-68
8.33309e-68
9.17154e-68
1.00919e-67
1.10974e-67
1.21906e-67
1.33731e-67
1.46458e-67
1.60077e-67
1.74566e-67
1.8988e-67
2.05952e-67
2.22688e-67
2.39964e-67
2.57623e-67
2.75469e-67
2.93269e-67
3.10745e-67
3.27577e-67
3.43402e-67
3.57812e-67
3.70359e-67
3.80559e-67
3.87898e-67
3.91839e-67
6.92995e-67
6.86409e-67
6.74098e-67
6.56915e-67
6.35688e-67
6.11205e-67
5.84204e-67
5.55359e-67
5.25282e-67
4.94516e-67
4.63536e-67
4.32748e-67
4.02497e-67
3.73064e-67
3.44676e-67
3.17507e-67
2.91688e-67
2.67308e-67
2.4442e-67
2.23051e-67
2.032e-67
1.84846e-67
1.67953e-67
1.52471e-67
1.38343e-67
1.25503e-67
1.13882e-67
1.0341e-67
9.40153e-68
8.56295e-68
7.81851e-68
7.16189e-68
6.58716e-68
6.08886e-68
5.66205e-68
5.30236e-68
5.00596e-68
4.76961e-68
4.59065e-68
4.46701e-68
4.3972e-68
4.38032e-68
4.41605e-68
4.50463e-68
4.64687e-68
4.8441e-68
5.09823e-68
5.41164e-68
5.78722e-68
6.22832e-68
6.73872e-68
7.32254e-68
7.98425e-68
8.72855e-68
9.56026e-68
1.04843e-67
1.15053e-67
1.2628e-67
1.38563e-67
1.51937e-67
1.66427e-67
1.82047e-67
1.98794e-67
2.16651e-67
2.35575e-67
2.555e-67
2.7633e-67
2.97935e-67
3.20149e-67
3.42762e-67
3.65523e-67
3.88132e-67
4.10238e-67
4.31443e-67
4.51296e-67
4.69299e-67
4.8491e-67
4.97549e-67
5.06606e-67
5.11451e-67
8.80625e-67
8.72638e-67
8.57667e-67
8.36714e-67
8.10759e-67
7.80736e-67
7.47526e-67
7.11943e-67
6.74727e-67
6.36541e-67
5.97969e-67
5.59517e-67
5.21615e-67
4.84621e-67
4.48827e-67
4.14461e-67
3.81699e-67
3.50665e-67
3.2144e-67
2.94069e-67
2.68564e-67
2.44911e-67
2.23076e-67
2.03007e-67
1.84639e-67
1.679e-67
1.52709e-67
1.38983e-67
1.2664e-67
1.15594e-67
1.05766e-67
9.70783e-68
8.94579e-68
8.28378e-68
7.71568e-68
7.23605e-68
6.84009e-68
6.52374e-68
6.28364e-68
6.11717e-68
6.02242e-68
5.99823e-68
6.04413e-68
6.16039e-68
6.34795e-68
6.60844e-68
6.94415e-68
7.35798e-68
7.85345e-68
8.4346e-68
9.106e-68
9.87261e-68
1.07398e-67
1.1713e-67
1.2798e-67
1.40005e-67
1.53259e-67
1.67792e-67
1.83649e-67
2.00864e-67
2.19462e-67
2.3945e-67
2.60817e-67
2.83528e-67
3.07523e-67
3.32708e-67
3.58955e-67
3.86093e-67
4.13907e-67
4.42134e-67
4.70457e-67
4.98502e-67
5.2584e-67
5.51984e-67
5.76388e-67
5.98453e-67
6.17533e-67
6.32936e-67
6.43944e-67
6.49817e-67
1.09909e-66
1.08948e-66
1.07144e-66
1.04615e-66
1.01475e-66
9.78357e-67
9.38018e-67
8.94702e-67
8.49296e-67
8.026e-67
7.55319e-67
7.08072e-67
6.61386e-67
6.15705e-67
5.71394e-67
5.28744e-67
4.8798e-67
4.49266e-67
4.12716e-67
3.78395e-67
3.46333e-67
3.16524e-67
2.88936e-67
2.63516e-67
2.40195e-67
2.18889e-67
1.99509e-67
1.81959e-67
1.66141e-67
1.51956e-67
1.39309e-67
1.28107e-67
1.18263e-67
1.09696e-67
1.02332e-67
9.61041e-68
9.09541e-68
8.68321e-68
8.36966e-68
8.15152e-68
8.02642e-68
7.99286e-68
8.05023e-68
8.19879e-68
8.43962e-68
8.77465e-68
9.20658e-68
9.73887e-68
1.03757e-67
1.11219e-67
1.19827e-67
1.29642e-67
1.40725e-67
1.53141e-67
1.66955e-67
1.82232e-67
1.99034e-67
2.17415e-67
2.37424e-67
2.59096e-67
2.82451e-67
3.07489e-67
3.34188e-67
3.62495e-67
3.92328e-67
4.23562e-67
4.5603e-67
4.89518e-67
5.23757e-67
5.58418e-67
5.93114e-67
6.2739e-67
6.60726e-67
6.92533e-67
7.22159e-67
7.4889e-67
7.71956e-67
7.90542e-67
8.038e-67
8.10861e-67
1.35458e-66
1.34308e-66
1.32147e-66
1.29112e-66
1.2534e-66
1.20961e-66
1.161e-66
1.10872e-66
1.05383e-66
9.97274e-67
9.39911e-67
8.82482e-67
8.25628e-67
7.69889e-67
7.15715e-67
6.63465e-67
6.13423e-67
5.658e-67
5.20743e-67
4.78346e-67
4.38655e-67
4.01674e-67
3.67377e-67
3.35709e-67
3.06594e-67
2.79942e-67
2.5565e-67
2.33609e-67
2.13704e-67
1.95822e-67
1.79849e-67
1.65677e-67
1.53203e-67
1.4233e-67
1.32969e-67
1.2504e-67
1.18474e-67
1.1321e-67
1.09197e-67
1.06396e-67
1.04778e-67
1.04324e-67
1.05027e-67
1.06888e-67
1.0992e-67
1.14146e-67
1.19596e-67
1.26312e-67
1.34342e-67
1.43742e-67
1.54576e-67
1.66911e-67
1.8082e-67
1.96378e-67
2.13658e-67
2.32735e-67
2.53677e-67
2.76545e-67
3.01388e-67
3.28242e-67
3.57123e-67
3.88023e-67
4.20905e-67
4.55699e-67
4.92291e-67
5.30526e-67
5.70193e-67
6.11026e-67
6.52694e-67
6.94798e-67
7.36866e-67
7.78351e-67
8.18629e-67
8.56996e-67
8.92675e-67
9.24818e-67
9.52515e-67
9.74801e-67
9.90677e-67
9.99123e-67
1.65433e-66
1.64061e-66
1.61481e-66
1.57855e-66
1.53343e-66
1.48101e-66
1.42274e-66
1.35999e-66
1.29403e-66
1.22599e-66
1.15687e-66
1.08758e-66
1.01889e-66
9.51434e-67
8.85772e-67
8.22341e-67
7.61491e-67
7.03484e-67
6.48511e-67
5.96693e-67
5.48098e-67
5.02742e-67
4.60603e-67
4.21626e-67
3.85729e-67
3.52812e-67
3.22758e-67
2.95443e-67
2.70735e-67
2.48502e-67
2.28612e-67
2.10939e-67
1.9536e-67
1.81761e-67
1.70038e-67
1.60095e-67
1.51849e-67
1.45227e-67
1.4017e-67
1.36629e-67
1.3457e-67
1.33969e-67
1.34817e-67
1.37114e-67
1.40876e-67
1.46127e-67
1.52905e-67
1.61255e-67
1.71236e-67
1.82912e-67
1.96356e-67
2.11646e-67
2.28867e-67
2.48103e-67
2.6944e-67
2.9296e-67
3.18739e-67
3.46844e-67
3.77328e-67
4.10226e-67
4.45548e-67
4.83276e-67
5.23359e-67
5.65701e-67
6.10161e-67
6.56542e-67
7.04585e-67
7.53964e-67
8.04277e-67
8.55043e-67
9.05695e-67
9.55578e-67
1.00395e-66
1.04996e-66
1.09271e-66
1.13117e-66
1.16428e-66
1.19089e-66
1.20983e-66
1.2199e-66
2.00682e-66
1.9905e-66
1.95977e-66
1.91656e-66
1.86276e-66
1.80019e-66
1.73059e-66
1.65558e-66
1.57665e-66
1.49515e-66
1.41228e-66
1.32911e-66
1.24655e-66
1.1654e-66
1.0863e-66
1.00979e-66
9.36304e-67
8.66154e-67
7.99581e-67
7.36742e-67
6.77726e-67
6.22565e-67
5.71242e-67
5.23701e-67
4.79853e-67
4.39586e-67
4.02768e-67
3.69258e-67
3.38904e-67
3.11552e-67
2.87051e-67
2.65252e-67
2.46012e-67
2.29197e-67
2.14683e-67
2.02359e-67
1.92125e-67
1.83895e-67
1.77599e-67
1.73178e-67
1.7059e-67
1.69808e-67
1.70818e-67
1.73623e-67
1.78236e-67
1.84689e-67
1.93022e-67
2.0329e-67
2.15559e-67
2.29904e-67
2.4641e-67
2.65166e-67
2.86269e-67
3.09815e-67
3.35903e-67
3.64624e-67
3.96064e-67
4.30297e-67
4.67378e-67
5.0734e-67
5.5019e-67
5.95898e-67
6.44393e-67
6.95555e-67
7.49206e-67
8.05103e-67
8.62933e-67
9.22299e-67
9.82719e-67
1.04361e-66
1.10431e-66
1.16402e-66
1.22186e-66
1.27684e-66
1.32786e-66
1.37373e-66
1.41319e-66
1.44488e-66
1.46743e-66
1.4794e-66
2.42204e-66
2.40264e-66
2.36611e-66
2.31472e-66
2.25069e-66
2.17619e-66
2.09326e-66
2.00383e-66
1.90965e-66
1.81234e-66
1.71331e-66
1.61384e-66
1.51502e-66
1.41778e-66
1.32292e-66
1.23108e-66
1.14276e-66
1.05837e-66
9.78193e-67
9.02426e-67
8.31186e-67
7.64522e-67
7.02422e-67
6.44829e-67
5.91645e-67
5.42745e-67
4.9798e-67
4.57187e-67
4.20192e-67
3.86818e-67
3.56889e-67
3.30229e-67
3.06673e-67
2.86065e-67
2.68258e-67
2.53121e-67
2.40538e-67
2.30406e-67
2.2264e-67
2.17174e-67
2.13955e-67
2.12952e-67
2.14146e-67
2.17539e-67
2.23149e-67
2.31008e-67
2.41166e-67
2.53683e-67
2.68638e-67
2.86115e-67
3.06213e-67
3.29035e-67
3.54691e-67
3.83293e-67
4.14952e-67
4.49771e-67
4.87848e-67
5.29261e-67
5.74072e-67
6.22313e-67
6.73982e-67
7.29039e-67
7.8739e-67
8.48885e-67
9.13305e-67
9.80356e-67
1.04966e-66
1.12073e-66
1.19301e-66
1.26579e-66
1.33826e-66
1.40951e-66
1.47848e-66
1.54399e-66
1.60474e-66
1.65933e-66
1.70626e-66
1.74393e-66
1.77071e-66
1.78493e-66
2.91176e-66
2.88874e-66
2.84536e-66
2.78431e-66
2.70822e-66
2.61964e-66
2.52101e-66
2.41458e-66
2.30245e-66
2.18651e-66
2.06847e-66
1.94981e-66
1.83185e-66
1.7157e-66
1.60231e-66
1.49243e-66
1.38668e-66
1.28555e-66
1.18938e-66
1.09842e-66
1.01281e-66
9.32628e-67
8.5786e-67
7.88449e-67
7.24289e-67
6.65237e-67
6.11124e-67
5.61762e-67
5.16953e-67
4.76489e-67
4.40165e-67
4.0778e-67
3.79138e-67
3.54056e-67
3.32364e-67
3.13908e-67
2.98548e-67
2.86167e-67
2.76664e-67
2.69957e-67
2.65987e-67
2.64714e-67
2.66116e-67
2.70195e-67
2.7697e-67
2.86478e-67
2.98775e-67
3.13933e-67
3.32039e-67
3.53194e-67
3.7751e-67
4.05107e-67
4.36111e-67
4.70649e-67
5.08848e-67
5.50827e-67
5.96694e-67
6.46537e-67
7.00422e-67
7.5838e-67
8.20404e-67
8.86436e-67
9.5636e-67
1.02999e-66
1.10706e-66
1.18721e-66
1.26999e-66
1.35483e-66
1.44104e-66
1.52779e-66
1.61413e-66
1.69896e-66
1.78102e-66
1.85892e-66
1.93114e-66
1.996e-66
2.05173e-66
2.09646e-66
2.12824e-66
2.14511e-66
3.4899e-66
3.4626e-66
3.41113e-66
3.33867e-66
3.24833e-66
3.14315e-66
3.02597e-66
2.89949e-66
2.76618e-66
2.62827e-66
2.4878e-66
2.34653e-66
2.20602e-66
2.06758e-66
1.93234e-66
1.80122e-66
1.67495e-66
1.5541e-66
1.43911e-66
1.33026e-66
1.22775e-66
1.13165e-66
1.04197e-66
9.58647e-67
8.81565e-67
8.10561e-67
7.45442e-67
6.8599e-67
6.31975e-67
5.83159e-67
5.39302e-67
5.00167e-67
4.65529e-67
4.35172e-67
4.08896e-67
3.86521e-67
3.67885e-67
3.52845e-67
3.41286e-67
3.3311e-67
3.28246e-67
3.26646e-67
3.28286e-67
3.33165e-67
3.41303e-67
3.52744e-67
3.67553e-67
3.85812e-67
4.07621e-67
4.33099e-67
4.62372e-67
4.95581e-67
5.32869e-67
5.74385e-67
6.20272e-67
6.70667e-67
7.25692e-67
7.85445e-67
8.49999e-67
9.19383e-67
9.93582e-67
1.07252e-66
1.15606e-66
1.24396e-66
1.33591e-66
1.43149e-66
1.53013e-66
1.63118e-66
1.73379e-66
1.83701e-66
1.93968e-66
2.0405e-66
2.138e-66
2.23052e-66
2.31626e-66
2.39324e-66
2.45936e-66
2.51241e-66
2.55009e-66
2.57009e-66
4.1729e-66
4.14053e-66
4.07949e-66
3.99355e-66
3.88639e-66
3.76157e-66
3.62249e-66
3.47232e-66
3.31399e-66
3.15016e-66
2.98321e-66
2.81525e-66
2.64812e-66
2.48339e-66
2.32239e-66
2.16622e-66
2.01574e-66
1.87166e-66
1.73447e-66
1.60454e-66
1.48209e-66
1.36723e-66
1.25998e-66
1.16027e-66
1.06796e-66
9.82869e-67
9.04778e-67
8.33434e-67
7.68569e-67
7.09907e-67
6.57166e-67
6.10074e-67
5.68363e-67
5.31782e-67
5.00098e-67
4.73098e-67
4.50591e-67
4.32411e-67
4.18419e-67
4.08503e-67
4.02578e-67
4.00585e-67
4.02496e-67
4.08308e-67
4.18045e-67
4.31756e-67
4.49515e-67
4.71419e-67
4.97584e-67
5.28144e-67
5.63249e-67
6.03059e-67
6.47742e-67
6.97468e-67
7.52403e-67
8.12703e-67
8.78505e-67
9.49924e-67
1.02704e-66
1.10987e-66
1.19841e-66
1.29255e-66
1.39211e-66
1.49683e-66
1.60632e-66
1.72006e-66
1.83741e-66
1.95755e-66
2.07952e-66
2.20214e-66
2.32408e-66
2.44378e-66
2.5595e-66
2.66927e-66
2.77097e-66
2.86225e-66
2.94064e-66
3.00352e-66
3.04818e-66
3.07188e-66
4.9802e-66
4.94183e-66
4.86948e-66
4.7676e-66
4.64053e-66
4.4925e-66
4.32753e-66
4.14936e-66
3.96147e-66
3.767e-66
3.56877e-66
3.36928e-66
3.17072e-66
2.97494e-66
2.78353e-66
2.59778e-66
2.41873e-66
2.24722e-66
2.08384e-66
1.92903e-66
1.78307e-66
1.64608e-66
1.5181e-66
1.39905e-66
1.28878e-66
1.18708e-66
1.09369e-66
1.00832e-66
9.30656e-67
8.60378e-67
7.97159e-67
7.40677e-67
6.9062e-67
6.46695e-67
6.08627e-67
5.76165e-67
5.49087e-67
5.27196e-67
5.10329e-67
4.98353e-67
4.91167e-67
4.88702e-67
4.90924e-67
4.97828e-67
5.0944e-67
5.25819e-67
5.47048e-67
5.7324e-67
6.0453e-67
6.41073e-67
6.83044e-67
7.30627e-67
7.84019e-67
8.43414e-67
9.09005e-67
9.80972e-67
1.05947e-66
1.14464e-66
1.23655e-66
1.33523e-66
1.44067e-66
1.55273e-66
1.67119e-66
1.79574e-66
1.92591e-66
2.06108e-66
2.20049e-66
2.34318e-66
2.48797e-66
2.63351e-66
2.77819e-66
2.92018e-66
3.05741e-66
3.18757e-66
3.30811e-66
3.4163e-66
3.50919e-66
3.58368e-66
3.63659e-66
3.66465e-66
5.93478e-66
5.88932e-66
5.8036e-66
5.68285e-66
5.53224e-66
5.35676e-66
5.16117e-66
4.94989e-66
4.72704e-66
4.49635e-66
4.26114e-66
4.02439e-66
3.78868e-66
3.55621e-66
3.32886e-66
3.10817e-66
2.89538e-66
2.69147e-66
2.49716e-66
2.31297e-66
2.13925e-66
1.97614e-66
1.82369e-66
1.68181e-66
1.55034e-66
1.42903e-66
1.31758e-66
1.21565e-66
1.12288e-66
1.0389e-66
9.63308e-67
8.95742e-67
8.35833e-67
7.83236e-67
7.37629e-67
6.98717e-67
6.66237e-67
6.39961e-67
6.19694e-67
6.05279e-67
5.96597e-67
5.93568e-67
5.96147e-67
6.0433e-67
6.18147e-67
6.37662e-67
6.62976e-67
6.94217e-67
7.31542e-67
7.75134e-67
8.25194e-67
8.81938e-67
9.45592e-67
1.01639e-66
1.09454e-66
1.18026e-66
1.27373e-66
1.3751e-66
1.48447e-66
1.60185e-66
1.72722e-66
1.86042e-66
2.00119e-66
2.14914e-66
2.30371e-66
2.46419e-66
2.62965e-66
2.79894e-66
2.9707e-66
3.1433e-66
3.31485e-66
3.48317e-66
3.64582e-66
3.80005e-66
3.94288e-66
4.07105e-66
4.18107e-66
4.2693e-66
4.33195e-66
4.36518e-66
7.06387e-66
7.01002e-66
6.90846e-66
6.76539e-66
6.58692e-66
6.37897e-66
6.14715e-66
5.89672e-66
5.63252e-66
5.35898e-66
5.08005e-66
4.79924e-66
4.5196e-66
4.24376e-66
3.97392e-66
3.71193e-66
3.45925e-66
3.21705e-66
2.9862e-66
2.7673e-66
2.56077e-66
2.3668e-66
2.18544e-66
2.01661e-66
1.86009e-66
1.71562e-66
1.58285e-66
1.46137e-66
1.35076e-66
1.25058e-66
1.16038e-66
1.07973e-66
1.00818e-66
9.45343e-67
8.9083e-67
8.44298e-67
8.05436e-67
7.73975e-67
7.49686e-67
7.32384e-67
7.21929e-67
7.18224e-67
7.21217e-67
7.309e-67
7.47308e-67
7.70517e-67
8.00641e-67
8.37831e-67
8.82271e-67
9.34172e-67
9.93769e-67
1.06132e-66
1.13707e-66
1.22131e-66
1.31428e-66
1.41623e-66
1.52737e-66
1.64787e-66
1.77783e-66
1.91729e-66
2.06618e-66
2.22434e-66
2.39144e-66
2.56702e-66
2.75042e-66
2.94078e-66
3.137e-66
3.33774e-66
3.54136e-66
3.74594e-66
3.94923e-66
4.14867e-66
4.34136e-66
4.52407e-66
4.69323e-66
4.84501e-66
4.9753e-66
5.07977e-66
5.15394e-66
5.19328e-66
8.39967e-66
8.33588e-66
8.21558e-66
8.0461e-66
7.83467e-66
7.58829e-66
7.3136e-66
7.01683e-66
6.70372e-66
6.37949e-66
6.04883e-66
5.7159e-66
5.38431e-66
5.05716e-66
4.73709e-66
4.42626e-66
4.12642e-66
3.83896e-66
3.56489e-66
3.30497e-66
3.05966e-66
2.82921e-66
2.61369e-66
2.41299e-66
2.22689e-66
2.05505e-66
1.89707e-66
1.75249e-66
1.6208e-66
1.5015e-66
1.39404e-66
1.29792e-66
1.21262e-66
1.13768e-66
1.07264e-66
1.0171e-66
9.70698e-67
9.33107e-67
9.04061e-67
8.83343e-67
8.70784e-67
8.66272e-67
8.69744e-67
8.81189e-67
9.00648e-67
9.28207e-67
9.64002e-67
1.00821e-66
1.06104e-66
1.12274e-66
1.19359e-66
1.27388e-66
1.36392e-66
1.46402e-66
1.57449e-66
1.69559e-66
1.82759e-66
1.97066e-66
2.12494e-66
2.29047e-66
2.46715e-66
2.65479e-66
2.853e-66
3.06122e-66
3.27868e-66
3.50435e-66
3.73693e-66
3.97482e-66
4.21609e-66
4.45847e-66
4.69929e-66
4.93553e-66
5.16373e-66
5.38009e-66
5.5804e-66
5.76011e-66
5.91436e-66
6.03803e-66
6.12583e-66
6.1724e-66
9.98029e-66
9.90474e-66
9.76225e-66
9.56151e-66
9.31107e-66
9.0192e-66
8.69379e-66
8.34218e-66
7.97118e-66
7.58698e-66
7.19512e-66
6.80052e-66
6.40746e-66
6.01963e-66
5.64013e-66
5.27153e-66
4.91591e-66
4.5749e-66
4.24974e-66
3.9413e-66
3.65014e-66
3.37656e-66
3.12065e-66
2.88228e-66
2.66119e-66
2.457e-66
2.26924e-66
2.09735e-66
1.94075e-66
1.79883e-66
1.67097e-66
1.55657e-66
1.45502e-66
1.36577e-66
1.2883e-66
1.22211e-66
1.16678e-66
1.12194e-66
1.08727e-66
1.0625e-66
1.04745e-66
1.04198e-66
1.046e-66
1.05952e-66
1.08257e-66
1.11526e-66
1.15774e-66
1.21022e-66
1.27295e-66
1.34622e-66
1.43035e-66
1.52569e-66
1.6326e-66
1.75143e-66
1.88255e-66
2.02628e-66
2.18291e-66
2.35265e-66
2.53567e-66
2.73198e-66
2.9415e-66
3.16396e-66
3.39893e-66
3.64573e-66
3.90344e-66
4.17084e-66
4.4464e-66
4.72822e-66
5.01401e-66
5.30108e-66
5.58627e-66
5.86601e-66
6.13622e-66
6.39238e-66
6.62952e-66
6.84226e-66
7.02485e-66
7.17123e-66
7.27515e-66
7.33027e-66
1.18508e-65
1.17614e-65
1.15926e-65
1.13549e-65
1.10583e-65
1.07126e-65
1.03271e-65
9.9106e-66
9.47109e-66
9.01591e-66
8.55162e-66
8.08404e-66
7.61825e-66
7.15861e-66
6.70879e-66
6.27184e-66
5.85023e-66
5.44589e-66
5.06029e-66
4.69445e-66
4.34906e-66
4.02447e-66
3.72078e-66
3.43787e-66
3.17541e-66
2.93297e-66
2.70997e-66
2.50579e-66
2.31974e-66
2.15109e-66
1.99911e-66
1.86309e-66
1.74233e-66
1.63616e-66
1.54397e-66
1.46519e-66
1.39932e-66
1.3459e-66
1.30457e-66
1.27501e-66
1.257e-66
1.25038e-66
1.25505e-66
1.27101e-66
1.2983e-66
1.33704e-66
1.38741e-66
1.44966e-66
1.52408e-66
1.611e-66
1.71082e-66
1.82392e-66
1.95075e-66
2.09171e-66
2.24723e-66
2.41768e-66
2.60341e-66
2.80468e-66
3.02164e-66
3.25434e-66
3.50266e-66
3.7663e-66
4.04472e-66
4.33712e-66
4.64242e-66
4.95916e-66
5.28553e-66
5.61928e-66
5.95771e-66
6.29762e-66
6.6353e-66
6.96648e-66
7.28636e-66
7.58959e-66
7.8703e-66
8.12211e-66
8.33822e-66
8.51147e-66
8.63446e-66
8.69969e-66
1.40648e-65
1.39588e-65
1.3759e-65
1.34774e-65
1.31261e-65
1.27167e-65
1.22602e-65
1.17669e-65
1.12463e-65
1.07071e-65
1.01571e-65
9.60311e-66
9.05124e-66
8.50662e-66
7.97359e-66
7.45576e-66
6.95606e-66
6.47679e-66
6.01966e-66
5.58592e-66
5.17637e-66
4.79143e-66
4.43123e-66
4.09562e-66
3.78423e-66
3.49653e-66
3.23188e-66
2.98951e-66
2.76861e-66
2.56834e-66
2.38784e-66
2.22625e-66
2.08277e-66
1.95659e-66
1.847e-66
1.75333e-66
1.67497e-66
1.61141e-66
1.56219e-66
1.52696e-66
1.50545e-66
1.49746e-66
1.50289e-66
1.52171e-66
1.554e-66
1.59987e-66
1.65956e-66
1.73335e-66
1.82157e-66
1.92463e-66
2.04297e-66
2.17707e-66
2.32742e-66
2.49453e-66
2.67888e-66
2.88093e-66
3.10105e-66
3.33956e-66
3.59666e-66
3.87237e-66
4.16657e-66
4.47887e-66
4.80866e-66
5.15498e-66
5.51654e-66
5.89163e-66
6.27809e-66
6.67326e-66
7.07394e-66
7.47634e-66
7.87608e-66
8.26811e-66
8.64675e-66
9.00567e-66
9.3379e-66
9.63593e-66
9.89169e-66
1.00967e-65
1.02423e-65
1.03195e-65
1.66852e-65
1.65598e-65
1.63232e-65
1.59897e-65
1.55737e-65
1.50889e-65
1.45482e-65
1.3964e-65
1.33474e-65
1.27087e-65
1.20573e-65
1.14011e-65
1.07473e-65
1.01021e-65
9.47062e-66
8.85708e-66
8.26497e-66
7.69701e-66
7.15525e-66
6.64116e-66
6.15568e-66
5.69935e-66
5.27228e-66
4.87432e-66
4.50503e-66
4.1638e-66
3.84986e-66
3.56231e-66
3.3002e-66
3.06252e-66
2.84828e-66
2.65645e-66
2.48608e-66
2.33624e-66
2.20606e-66
2.09477e-66
2.00164e-66
1.92607e-66
1.86752e-66
1.82558e-66
1.79991e-66
1.79029e-66
1.7966e-66
1.8188e-66
1.85698e-66
1.91129e-66
1.98198e-66
2.06938e-66
2.17391e-66
2.29603e-66
2.43626e-66
2.59517e-66
2.77334e-66
2.97135e-66
3.18978e-66
3.42916e-66
3.68994e-66
3.97249e-66
4.27703e-66
4.6036e-66
4.95203e-66
5.32189e-66
5.71241e-66
6.1225e-66
6.55059e-66
6.99468e-66
7.4522e-66
7.92001e-66
8.39432e-66
8.87065e-66
9.3438e-66
9.80781e-66
1.02559e-65
1.06807e-65
1.10739e-65
1.14266e-65
1.17293e-65
1.19719e-65
1.21442e-65
1.22355e-65
1.97872e-65
1.96386e-65
1.93584e-65
1.89636e-65
1.8471e-65
1.78968e-65
1.72566e-65
1.65647e-65
1.58344e-65
1.50781e-65
1.43065e-65
1.35293e-65
1.2755e-65
1.19907e-65
1.12426e-65
1.05158e-65
9.81433e-66
9.14141e-66
8.49948e-66
7.8903e-66
7.31498e-66
6.77414e-66
6.26795e-66
5.79621e-66
5.35841e-66
4.95384e-66
4.58157e-66
4.24057e-66
3.92969e-66
3.64776e-66
3.39359e-66
3.16598e-66
2.9638e-66
2.78596e-66
2.63142e-66
2.49927e-66
2.38867e-66
2.29888e-66
2.22929e-66
2.17939e-66
2.1488e-66
2.13724e-66
2.14458e-66
2.17077e-66
2.2159e-66
2.28016e-66
2.36384e-66
2.46734e-66
2.59114e-66
2.73578e-66
2.90189e-66
3.09012e-66
3.30116e-66
3.5357e-66
3.79442e-66
4.07794e-66
4.3868e-66
4.72142e-66
5.08205e-66
5.46876e-66
5.88133e-66
6.31924e-66
6.78161e-66
7.2671e-66
7.77389e-66
8.29958e-66
8.84116e-66
9.39489e-66
9.95629e-66
1.05201e-65
1.108e-65
1.16292e-65
1.21595e-65
1.26622e-65
1.31276e-65
1.35449e-65
1.39031e-65
1.41902e-65
1.4394e-65
1.45021e-65
2.34591e-65
2.32832e-65
2.29515e-65
2.2484e-65
2.19007e-65
2.12208e-65
2.04626e-65
1.96432e-65
1.87785e-65
1.78828e-65
1.6969e-65
1.60486e-65
1.51315e-65
1.42263e-65
1.33403e-65
1.24793e-65
1.16484e-65
1.08512e-65
1.00908e-65
9.36902e-66
8.68736e-66
8.04651e-66
7.44668e-66
6.88762e-66
6.36875e-66
5.88921e-66
5.44793e-66
5.04366e-66
4.67507e-66
4.34078e-66
4.03935e-66
3.76941e-66
3.52959e-66
3.3186e-66
3.13525e-66
2.97842e-66
2.84713e-66
2.74052e-66
2.65785e-66
2.59852e-66
2.56209e-66
2.54823e-66
2.55676e-66
2.58765e-66
2.64099e-66
2.717e-66
2.81604e-66
2.93857e-66
3.08514e-66
3.2564e-66
3.4531e-66
3.67599e-66
3.9259e-66
4.20363e-66
4.50999e-66
4.8457e-66
5.21141e-66
5.60759e-66
6.03457e-66
6.4924e-66
6.98082e-66
7.49923e-66
8.04656e-66
8.62124e-66
9.22111e-66
9.84333e-66
1.04843e-65
1.11397e-65
1.18041e-65
1.24713e-65
1.3134e-65
1.37839e-65
1.44115e-65
1.50064e-65
1.5557e-65
1.60509e-65
1.64747e-65
1.68145e-65
1.70556e-65
1.71835e-65
2.78061e-65
2.75978e-65
2.7205e-65
2.66514e-65
2.59607e-65
2.51557e-65
2.42579e-65
2.32877e-65
2.22637e-65
2.12031e-65
2.01209e-65
1.90309e-65
1.79449e-65
1.68728e-65
1.58234e-65
1.48038e-65
1.38195e-65
1.28753e-65
1.19745e-65
1.11196e-65
1.0312e-65
9.55281e-66
8.84213e-66
8.17973e-66
7.5649e-66
6.99664e-66
6.47367e-66
5.99453e-66
5.55765e-66
5.16137e-66
4.80404e-66
4.48398e-66
4.19961e-66
3.9494e-66
3.73193e-66
3.54589e-66
3.39011e-66
3.26358e-66
3.16543e-66
3.09494e-66
3.05158e-66
3.03497e-66
3.04491e-66
3.08134e-66
3.14437e-66
3.23428e-66
3.35146e-66
3.49646e-66
3.66995e-66
3.8727e-66
4.10555e-66
4.36943e-66
4.6653e-66
4.99411e-66
5.3568e-66
5.75423e-66
6.18716e-66
6.65617e-66
7.16161e-66
7.70355e-66
8.28169e-66
8.89531e-66
9.54314e-66
1.02233e-65
1.09333e-65
1.16697e-65
1.24283e-65
1.32039e-65
1.39902e-65
1.47798e-65
1.5564e-65
1.6333e-65
1.70757e-65
1.77796e-65
1.84312e-65
1.90156e-65
1.95171e-65
1.99191e-65
2.02045e-65
2.03558e-65
3.29522e-65
3.27056e-65
3.22405e-65
3.15851e-65
3.07672e-65
2.9814e-65
2.8751e-65
2.76021e-65
2.63896e-65
2.51336e-65
2.38523e-65
2.25615e-65
2.12754e-65
2.00058e-65
1.87631e-65
1.75555e-65
1.63898e-65
1.52715e-65
1.42046e-65
1.31919e-65
1.22354e-65
1.13361e-65
1.04942e-65
9.70945e-66
8.98105e-66
8.30777e-66
7.68812e-66
7.12036e-66
6.60264e-66
6.133e-66
5.70948e-66
5.33011e-66
4.99302e-66
4.69638e-66
4.43852e-66
4.2179e-66
4.03314e-66
3.88302e-66
3.76652e-66
3.68281e-66
3.63124e-66
3.61137e-66
3.62294e-66
3.66591e-66
3.74039e-66
3.84671e-66
3.98533e-66
4.15692e-66
4.36223e-66
4.60219e-66
4.8778e-66
5.19015e-66
5.54036e-66
5.92957e-66
6.35888e-66
6.82932e-66
7.34176e-66
7.8969e-66
8.49514e-66
9.13658e-66
9.82084e-66
1.05471e-65
1.13138e-65
1.21188e-65
1.2959e-65
1.38305e-65
1.47282e-65
1.5646e-65
1.65765e-65
1.75108e-65
1.84388e-65
1.93488e-65
2.02277e-65
2.10606e-65
2.18315e-65
2.2523e-65
2.31164e-65
2.35921e-65
2.39298e-65
2.41088e-65
3.90446e-65
3.87526e-65
3.82019e-65
3.74259e-65
3.64575e-65
3.53289e-65
3.40701e-65
3.27098e-65
3.12741e-65
2.97869e-65
2.82696e-65
2.67412e-65
2.52182e-65
2.37148e-65
2.22431e-65
2.08131e-65
1.94327e-65
1.81083e-65
1.68447e-65
1.56453e-65
1.45125e-65
1.34472e-65
1.245e-65
1.15205e-65
1.06576e-65
9.86006e-66
9.12595e-66
8.4533e-66
7.83989e-66
7.28341e-66
6.78155e-66
6.33198e-66
5.93246e-66
5.58087e-66
5.2752e-66
5.01364e-66
4.79456e-66
4.61651e-66
4.4783e-66
4.37891e-66
4.31761e-66
4.29385e-66
4.30734e-66
4.35802e-66
4.44602e-66
4.57173e-66
4.73571e-66
4.93871e-66
5.18166e-66
5.46562e-66
5.7918e-66
6.16146e-66
6.57594e-66
7.03659e-66
7.5447e-66
8.10148e-66
8.70797e-66
9.36498e-66
1.0073e-65
1.08321e-65
1.16419e-65
1.25014e-65
1.34087e-65
1.43613e-65
1.53556e-65
1.63869e-65
1.74492e-65
1.85353e-65
1.96364e-65
2.0742e-65
2.18401e-65
2.29168e-65
2.39567e-65
2.49423e-65
2.58545e-65
2.66727e-65
2.73748e-65
2.79376e-65
2.83371e-65
2.8549e-65
4.62574e-65
4.59117e-65
4.52596e-65
4.43407e-65
4.31942e-65
4.18578e-65
4.03675e-65
3.87568e-65
3.70568e-65
3.52959e-65
3.34993e-65
3.16894e-65
2.9886e-65
2.81059e-65
2.63632e-65
2.46697e-65
2.3035e-65
2.14667e-65
1.99703e-65
1.85499e-65
1.72082e-65
1.59466e-65
1.47656e-65
1.36646e-65
1.26426e-65
1.16978e-65
1.08283e-65
1.00314e-65
9.30474e-66
8.64548e-66
8.05087e-66
7.51819e-66
7.04478e-66
6.62813e-66
6.26586e-66
5.95584e-66
5.69611e-66
5.485e-66
5.32105e-66
5.2031e-66
5.13025e-66
5.10187e-66
5.11761e-66
5.17738e-66
5.28136e-66
5.42999e-66
5.62394e-66
5.86408e-66
6.15153e-66
6.48753e-66
6.8735e-66
7.31095e-66
7.80146e-66
8.34659e-66
8.94791e-66
9.60682e-66
1.03246e-65
1.11021e-65
1.19399e-65
1.28383e-65
1.37966e-65
1.48136e-65
1.58873e-65
1.70146e-65
1.81912e-65
1.94115e-65
2.06686e-65
2.19537e-65
2.32566e-65
2.45648e-65
2.58641e-65
2.71382e-65
2.83686e-65
2.95348e-65
3.06141e-65
3.15822e-65
3.2413e-65
3.30789e-65
3.35516e-65
3.38022e-65
5.47966e-65
5.43873e-65
5.36153e-65
5.25274e-65
5.11699e-65
4.95875e-65
4.78229e-65
4.59158e-65
4.3903e-65
4.18179e-65
3.96906e-65
3.75477e-65
3.54123e-65
3.33044e-65
3.12408e-65
2.92356e-65
2.72999e-65
2.54427e-65
2.36706e-65
2.19886e-65
2.03997e-65
1.89057e-65
1.7507e-65
1.62031e-65
1.49926e-65
1.38737e-65
1.28437e-65
1.18998e-65
1.10391e-65
1.02581e-65
9.55371e-66
8.92264e-66
8.36175e-66
7.86807e-66
7.43879e-66
7.07138e-66
6.76354e-66
6.51326e-66
6.31883e-66
6.17889e-66
6.09234e-66
6.05846e-66
6.07683e-66
6.14733e-66
6.27019e-66
6.44591e-66
6.67528e-66
6.95935e-66
7.29941e-66
7.69696e-66
8.15365e-66
8.67128e-66
9.2517e-66
9.89678e-66
1.06083e-65
1.13881e-65
1.22374e-65
1.31575e-65
1.4149e-65
1.5212e-65
1.6346e-65
1.75495e-65
1.882e-65
2.01539e-65
2.15461e-65
2.29901e-65
2.44775e-65
2.59981e-65
2.75397e-65
2.90876e-65
3.0625e-65
3.21326e-65
3.35884e-65
3.49682e-65
3.62453e-65
3.73908e-65
3.83737e-65
3.91617e-65
3.97209e-65
4.00175e-65
6.49065e-65
6.44219e-65
6.35078e-65
6.22197e-65
6.06124e-65
5.87389e-65
5.66496e-65
5.43915e-65
5.20083e-65
4.95395e-65
4.70207e-65
4.44833e-65
4.19549e-65
3.9459e-65
3.70155e-65
3.46411e-65
3.2349e-65
3.01499e-65
2.80515e-65
2.60597e-65
2.41782e-65
2.24089e-65
2.07525e-65
1.92084e-65
1.77749e-65
1.64496e-65
1.52298e-65
1.41119e-65
1.30924e-65
1.21674e-65
1.1333e-65
1.05854e-65
9.92097e-66
9.33609e-66
8.82748e-66
8.39211e-66
8.02728e-66
7.73062e-66
7.5001e-66
7.33408e-66
7.2313e-66
7.19088e-66
7.21232e-66
7.29549e-66
7.44065e-66
7.64839e-66
7.91964e-66
8.25565e-66
8.65794e-66
9.12828e-66
9.66862e-66
1.02811e-65
1.09678e-65
1.17311e-65
1.25731e-65
1.34957e-65
1.45007e-65
1.55895e-65
1.67627e-65
1.80205e-65
1.93624e-65
2.07864e-65
2.22898e-65
2.38681e-65
2.55154e-65
2.7224e-65
2.8984e-65