/*--------------------------------*- C++ -*----------------------------------*\
  =========                 |
  \\      /  F ield         | OpenFOAM: The Open Source CFD Toolbox
   \\    /   O peration     | Website:  https://openfoam.org
    \\  /    A nd           | Version:  11
     \\/     M anipulation  |
\*---------------------------------------------------------------------------*/
FoamFile
{
    format      ascii;
    class       volScalarField;
    location    "5";
    object      C;
}
// * * * * * * * * * * * * * * * * * * * * * * * * * * * * * * * * * * * * * //

dimensions      [0 0 0 1 0 0 0];

internalField   nonuniform List<scalar> 
332800
(
5.94655e-12
5.93455e-12
5.91395e-12
5.88682e-12
5.85461e-12
5.81837e-12
5.77893e-12
5.73697e-12
5.69305e-12
5.64768e-12
5.60127e-12
5.5542e-12
5.5068e-12
5.45937e-12
5.41217e-12
5.36544e-12
5.3194e-12
5.27423e-12
5.23011e-12
5.18719e-12
5.14562e-12
5.10551e-12
5.06698e-12
5.03014e-12
4.99507e-12
4.96186e-12
4.93058e-12
4.90129e-12
4.87406e-12
4.84894e-12
4.82596e-12
4.80518e-12
4.78663e-12
4.77033e-12
4.75632e-12
4.7446e-12
4.73521e-12
4.72816e-12
4.72345e-12
4.7211e-12
4.7211e-12
4.72345e-12
4.72816e-12
4.73521e-12
4.7446e-12
4.75631e-12
4.77033e-12
4.78663e-12
4.80518e-12
4.82596e-12
4.84894e-12
4.87406e-12
4.90129e-12
4.93058e-12
4.96186e-12
4.99507e-12
5.03014e-12
5.06698e-12
5.10551e-12
5.14561e-12
5.18719e-12
5.23011e-12
5.27423e-12
5.3194e-12
5.36544e-12
5.41217e-12
5.45937e-12
5.50679e-12
5.55419e-12
5.60126e-12
5.64767e-12
5.69305e-12
5.73696e-12
5.77893e-12
5.81837e-12
5.85461e-12
5.88682e-12
5.91394e-12
5.93455e-12
5.94655e-12
1.78967e-11
1.78702e-11
1.78219e-11
1.77559e-11
1.76752e-11
1.75824e-11
1.74797e-11
1.7369e-11
1.72519e-11
1.71298e-11
1.7004e-11
1.68755e-11
1.67453e-11
1.66144e-11
1.64835e-11
1.63535e-11
1.62248e-11
1.60982e-11
1.59741e-11
1.58531e-11
1.57355e-11
1.56219e-11
1.55125e-11
1.54076e-11
1.53077e-11
1.52128e-11
1.51234e-11
1.50395e-11
1.49614e-11
1.48893e-11
1.48233e-11
1.47636e-11
1.47102e-11
1.46632e-11
1.46228e-11
1.45891e-11
1.4562e-11
1.45416e-11
1.4528e-11
1.45212e-11
1.45212e-11
1.4528e-11
1.45416e-11
1.4562e-11
1.45891e-11
1.46228e-11
1.46632e-11
1.47102e-11
1.47636e-11
1.48233e-11
1.48893e-11
1.49614e-11
1.50395e-11
1.51234e-11
1.52128e-11
1.53076e-11
1.54076e-11
1.55124e-11
1.56219e-11
1.57355e-11
1.58531e-11
1.59741e-11
1.60982e-11
1.62248e-11
1.63535e-11
1.64835e-11
1.66144e-11
1.67453e-11
1.68754e-11
1.70039e-11
1.71298e-11
1.72519e-11
1.7369e-11
1.74797e-11
1.75824e-11
1.76752e-11
1.77559e-11
1.78219e-11
1.78702e-11
1.78967e-11
2.99596e-11
2.99224e-11
2.98536e-11
2.97578e-11
2.9639e-11
2.95009e-11
2.93466e-11
2.9179e-11
2.90004e-11
2.8813e-11
2.86189e-11
2.84199e-11
2.82174e-11
2.8013e-11
2.78081e-11
2.76037e-11
2.74011e-11
2.72011e-11
2.70048e-11
2.68128e-11
2.66261e-11
2.64452e-11
2.62708e-11
2.61034e-11
2.59436e-11
2.57919e-11
2.56485e-11
2.5514e-11
2.53887e-11
2.52728e-11
2.51666e-11
2.50705e-11
2.49845e-11
2.49088e-11
2.48437e-11
2.47893e-11
2.47456e-11
2.47128e-11
2.46908e-11
2.46799e-11
2.46799e-11
2.46908e-11
2.47128e-11
2.47456e-11
2.47893e-11
2.48437e-11
2.49088e-11
2.49845e-11
2.50705e-11
2.51666e-11
2.52728e-11
2.53887e-11
2.5514e-11
2.56485e-11
2.57918e-11
2.59436e-11
2.61034e-11
2.62708e-11
2.64452e-11
2.66261e-11
2.68128e-11
2.70048e-11
2.72011e-11
2.74011e-11
2.76037e-11
2.78081e-11
2.8013e-11
2.82174e-11
2.84198e-11
2.86189e-11
2.8813e-11
2.90004e-11
2.9179e-11
2.93466e-11
2.95009e-11
2.9639e-11
2.97577e-11
2.98536e-11
2.99224e-11
2.99595e-11
4.21754e-11
4.21299e-11
4.20446e-11
4.19248e-11
4.1775e-11
4.15996e-11
4.14023e-11
4.11865e-11
4.09556e-11
4.07122e-11
4.0459e-11
4.01984e-11
3.99324e-11
3.96631e-11
3.93923e-11
3.91216e-11
3.88526e-11
3.85866e-11
3.83248e-11
3.80685e-11
3.78187e-11
3.75764e-11
3.73424e-11
3.71176e-11
3.69027e-11
3.66983e-11
3.65051e-11
3.63237e-11
3.61544e-11
3.59979e-11
3.58543e-11
3.57242e-11
3.56078e-11
3.55054e-11
3.54172e-11
3.53434e-11
3.52841e-11
3.52396e-11
3.52098e-11
3.5195e-11
3.5195e-11
3.52098e-11
3.52396e-11
3.52841e-11
3.53433e-11
3.54171e-11
3.55054e-11
3.56078e-11
3.57242e-11
3.58543e-11
3.59978e-11
3.61544e-11
3.63237e-11
3.65051e-11
3.66983e-11
3.69026e-11
3.71176e-11
3.73424e-11
3.75764e-11
3.78187e-11
3.80685e-11
3.83248e-11
3.85866e-11
3.88526e-11
3.91216e-11
3.93923e-11
3.96631e-11
3.99324e-11
4.01983e-11
4.0459e-11
4.07122e-11
4.09556e-11
4.11865e-11
4.14022e-11
4.15995e-11
4.1775e-11
4.19248e-11
4.20446e-11
4.21299e-11
4.21753e-11
5.45762e-11
5.45237e-11
5.44248e-11
5.42849e-11
5.4109e-11
5.39019e-11
5.36679e-11
5.34109e-11
5.31347e-11
5.28426e-11
5.25377e-11
5.22229e-11
5.19008e-11
5.15738e-11
5.12442e-11
5.09141e-11
5.05852e-11
5.02595e-11
4.99385e-11
4.96236e-11
4.93162e-11
4.90177e-11
4.87291e-11
4.84514e-11
4.81857e-11
4.79328e-11
4.76936e-11
4.74686e-11
4.72586e-11
4.70642e-11
4.68859e-11
4.67242e-11
4.65794e-11
4.64519e-11
4.63422e-11
4.62503e-11
4.61765e-11
4.6121e-11
4.6084e-11
4.60654e-11
4.60654e-11
4.6084e-11
4.6121e-11
4.61765e-11
4.62503e-11
4.63421e-11
4.64519e-11
4.65794e-11
4.67241e-11
4.68859e-11
4.70642e-11
4.72586e-11
4.74686e-11
4.76935e-11
4.79328e-11
4.81857e-11
4.84514e-11
4.87291e-11
4.90177e-11
4.93162e-11
4.96236e-11
4.99384e-11
5.02595e-11
5.05852e-11
5.0914e-11
5.12442e-11
5.15738e-11
5.19008e-11
5.22229e-11
5.25377e-11
5.28426e-11
5.31347e-11
5.34109e-11
5.36679e-11
5.39019e-11
5.4109e-11
5.42849e-11
5.44248e-11
5.45237e-11
5.45761e-11
6.71886e-11
6.71302e-11
6.70196e-11
6.68623e-11
6.66639e-11
6.64294e-11
6.61634e-11
6.58704e-11
6.55545e-11
6.52195e-11
6.48688e-11
6.45059e-11
6.41337e-11
6.37551e-11
6.33726e-11
6.29888e-11
6.2606e-11
6.2226e-11
6.1851e-11
6.14827e-11
6.11228e-11
6.07727e-11
6.04338e-11
6.01076e-11
5.9795e-11
5.94972e-11
5.92153e-11
5.895e-11
5.87022e-11
5.84726e-11
5.82619e-11
5.80707e-11
5.78995e-11
5.77487e-11
5.76188e-11
5.751e-11
5.74226e-11
5.73569e-11
5.7313e-11
5.72911e-11
5.72911e-11
5.7313e-11
5.73569e-11
5.74226e-11
5.751e-11
5.76188e-11
5.77487e-11
5.78995e-11
5.80707e-11
5.82619e-11
5.84726e-11
5.87022e-11
5.895e-11
5.92152e-11
5.94972e-11
5.9795e-11
6.01075e-11
6.04338e-11
6.07726e-11
6.11227e-11
6.14827e-11
6.1851e-11
6.2226e-11
6.26059e-11
6.29888e-11
6.33726e-11
6.3755e-11
6.41337e-11
6.45059e-11
6.48688e-11
6.52195e-11
6.55545e-11
6.58704e-11
6.61634e-11
6.64293e-11
6.66639e-11
6.68623e-11
6.70195e-11
6.71302e-11
6.71886e-11
8.00357e-11
7.99721e-11
7.9851e-11
7.96785e-11
7.94602e-11
7.92015e-11
7.89072e-11
7.85823e-11
7.8231e-11
7.78577e-11
7.74661e-11
7.70599e-11
7.66426e-11
7.62174e-11
7.57871e-11
7.53547e-11
7.49226e-11
7.44932e-11
7.40689e-11
7.36517e-11
7.32434e-11
7.28459e-11
7.24607e-11
7.20895e-11
7.17337e-11
7.13943e-11
7.10728e-11
7.077e-11
7.04871e-11
7.02248e-11
6.9984e-11
6.97653e-11
6.95694e-11
6.93968e-11
6.9248e-11
6.91234e-11
6.90234e-11
6.89481e-11
6.88978e-11
6.88726e-11
6.88726e-11
6.88978e-11
6.89481e-11
6.90233e-11
6.91234e-11
6.9248e-11
6.93968e-11
6.95694e-11
6.97653e-11
6.99839e-11
7.02248e-11
7.04871e-11
7.077e-11
7.10728e-11
7.13943e-11
7.17336e-11
7.20895e-11
7.24607e-11
7.28458e-11
7.32433e-11
7.36516e-11
7.40689e-11
7.44932e-11
7.49225e-11
7.53546e-11
7.57871e-11
7.62173e-11
7.66426e-11
7.70599e-11
7.7466e-11
7.78576e-11
7.8231e-11
7.85822e-11
7.89072e-11
7.92014e-11
7.94602e-11
7.96785e-11
7.9851e-11
7.9972e-11
8.00357e-11
9.31378e-11
9.30694e-11
9.29391e-11
9.27528e-11
9.25167e-11
9.22361e-11
9.19164e-11
9.15626e-11
9.11795e-11
9.07715e-11
9.03429e-11
8.98975e-11
8.94393e-11
8.89715e-11
8.84977e-11
8.80207e-11
8.75436e-11
8.70689e-11
8.65992e-11
8.61369e-11
8.5684e-11
8.52427e-11
8.48148e-11
8.4402e-11
8.40059e-11
8.3628e-11
8.32696e-11
8.2932e-11
8.26163e-11
8.23234e-11
8.20544e-11
8.18101e-11
8.15911e-11
8.13981e-11
8.12317e-11
8.10923e-11
8.09804e-11
8.08961e-11
8.08398e-11
8.08117e-11
8.08117e-11
8.08398e-11
8.08961e-11
8.09804e-11
8.10923e-11
8.12317e-11
8.13981e-11
8.15911e-11
8.18101e-11
8.20544e-11
8.23234e-11
8.26162e-11
8.29319e-11
8.32696e-11
8.36279e-11
8.40058e-11
8.44019e-11
8.48147e-11
8.52427e-11
8.5684e-11
8.61368e-11
8.65992e-11
8.70688e-11
8.75435e-11
8.80207e-11
8.84976e-11
8.89715e-11
8.94392e-11
8.98975e-11
9.03428e-11
9.07715e-11
9.11795e-11
9.15626e-11
9.19164e-11
9.2236e-11
9.25166e-11
9.27528e-11
9.2939e-11
9.30694e-11
9.31378e-11
1.06513e-10
1.06441e-10
1.06302e-10
1.06103e-10
1.0585e-10
1.0555e-10
1.05207e-10
1.04827e-10
1.04415e-10
1.03975e-10
1.03512e-10
1.03031e-10
1.02535e-10
1.02029e-10
1.01514e-10
1.00997e-10
1.00478e-10
9.99613e-11
9.94496e-11
9.89456e-11
9.84514e-11
9.79694e-11
9.75017e-11
9.70502e-11
9.66166e-11
9.62027e-11
9.581e-11
9.54398e-11
9.50935e-11
9.47721e-11
9.44767e-11
9.42083e-11
9.39677e-11
9.37556e-11
9.35727e-11
9.34194e-11
9.32962e-11
9.32036e-11
9.31417e-11
9.31107e-11
9.31107e-11
9.31417e-11
9.32036e-11
9.32962e-11
9.34194e-11
9.35726e-11
9.37556e-11
9.39677e-11
9.42083e-11
9.44767e-11
9.4772e-11
9.50934e-11
9.54398e-11
9.58099e-11
9.62027e-11
9.66166e-11
9.70501e-11
9.75016e-11
9.79694e-11
9.84513e-11
9.89455e-11
9.94496e-11
9.99612e-11
1.00478e-10
1.00996e-10
1.01514e-10
1.02028e-10
1.02535e-10
1.03031e-10
1.03512e-10
1.03975e-10
1.04415e-10
1.04827e-10
1.05207e-10
1.0555e-10
1.0585e-10
1.06103e-10
1.06302e-10
1.06441e-10
1.06513e-10
1.20179e-10
1.20102e-10
1.19955e-10
1.19745e-10
1.19477e-10
1.19158e-10
1.18794e-10
1.1839e-10
1.1795e-10
1.17481e-10
1.16987e-10
1.16473e-10
1.15942e-10
1.15399e-10
1.14848e-10
1.14292e-10
1.13735e-10
1.13179e-10
1.12628e-10
1.12085e-10
1.11553e-10
1.11033e-10
1.10528e-10
1.1004e-10
1.09572e-10
1.09124e-10
1.08699e-10
1.08298e-10
1.07923e-10
1.07575e-10
1.07255e-10
1.06964e-10
1.06703e-10
1.06473e-10
1.06274e-10
1.06108e-10
1.05974e-10
1.05874e-10
1.05807e-10
1.05773e-10
1.05773e-10
1.05807e-10
1.05874e-10
1.05974e-10
1.06108e-10
1.06274e-10
1.06473e-10
1.06703e-10
1.06964e-10
1.07255e-10
1.07575e-10
1.07923e-10
1.08298e-10
1.08699e-10
1.09124e-10
1.09572e-10
1.1004e-10
1.10528e-10
1.11033e-10
1.11553e-10
1.12085e-10
1.12628e-10
1.13179e-10
1.13735e-10
1.14292e-10
1.14848e-10
1.15399e-10
1.15942e-10
1.16473e-10
1.16987e-10
1.17481e-10
1.1795e-10
1.1839e-10
1.18794e-10
1.19158e-10
1.19477e-10
1.19745e-10
1.19955e-10
1.20102e-10
1.20179e-10
1.34151e-10
1.3407e-10
1.33916e-10
1.33695e-10
1.33413e-10
1.33077e-10
1.32692e-10
1.32265e-10
1.318e-10
1.31304e-10
1.30781e-10
1.30235e-10
1.29672e-10
1.29095e-10
1.28509e-10
1.27917e-10
1.27324e-10
1.26732e-10
1.26144e-10
1.25565e-10
1.24996e-10
1.2444e-10
1.239e-10
1.23379e-10
1.22877e-10
1.22398e-10
1.21943e-10
1.21513e-10
1.21111e-10
1.20737e-10
1.20394e-10
1.20082e-10
1.19801e-10
1.19554e-10
1.19341e-10
1.19162e-10
1.19019e-10
1.18911e-10
1.18838e-10
1.18802e-10
1.18802e-10
1.18838e-10
1.18911e-10
1.19019e-10
1.19162e-10
1.19341e-10
1.19554e-10
1.19801e-10
1.20082e-10
1.20394e-10
1.20737e-10
1.21111e-10
1.21513e-10
1.21943e-10
1.22398e-10
1.22877e-10
1.23379e-10
1.239e-10
1.2444e-10
1.24996e-10
1.25565e-10
1.26144e-10
1.26731e-10
1.27324e-10
1.27917e-10
1.28509e-10
1.29095e-10
1.29672e-10
1.30235e-10
1.30781e-10
1.31304e-10
1.318e-10
1.32265e-10
1.32692e-10
1.33076e-10
1.33413e-10
1.33695e-10
1.33916e-10
1.3407e-10
1.34151e-10
1.48443e-10
1.48359e-10
1.48198e-10
1.47966e-10
1.47671e-10
1.47318e-10
1.46915e-10
1.46466e-10
1.45978e-10
1.45455e-10
1.44904e-10
1.44329e-10
1.43735e-10
1.43126e-10
1.42507e-10
1.41882e-10
1.41254e-10
1.40628e-10
1.40006e-10
1.39392e-10
1.38789e-10
1.382e-10
1.37627e-10
1.37073e-10
1.3654e-10
1.36031e-10
1.35547e-10
1.3509e-10
1.34662e-10
1.34265e-10
1.33899e-10
1.33567e-10
1.33268e-10
1.33005e-10
1.32778e-10
1.32587e-10
1.32434e-10
1.32319e-10
1.32242e-10
1.32204e-10
1.32204e-10
1.32242e-10
1.32319e-10
1.32434e-10
1.32587e-10
1.32778e-10
1.33005e-10
1.33268e-10
1.33567e-10
1.33899e-10
1.34265e-10
1.34662e-10
1.3509e-10
1.35547e-10
1.36031e-10
1.3654e-10
1.37073e-10
1.37627e-10
1.382e-10
1.38789e-10
1.39392e-10
1.40006e-10
1.40628e-10
1.41254e-10
1.41882e-10
1.42507e-10
1.43126e-10
1.43735e-10
1.44329e-10
1.44904e-10
1.45455e-10
1.45978e-10
1.46466e-10
1.46915e-10
1.47318e-10
1.47671e-10
1.47966e-10
1.48198e-10
1.48359e-10
1.48443e-10
1.63071e-10
1.62984e-10
1.62815e-10
1.62574e-10
1.62265e-10
1.61897e-10
1.61475e-10
1.61006e-10
1.60495e-10
1.59948e-10
1.5937e-10
1.58768e-10
1.58144e-10
1.57505e-10
1.56855e-10
1.56197e-10
1.55537e-10
1.54878e-10
1.54223e-10
1.53576e-10
1.52941e-10
1.5232e-10
1.51715e-10
1.51131e-10
1.50568e-10
1.5003e-10
1.49519e-10
1.49036e-10
1.48584e-10
1.48164e-10
1.47777e-10
1.47425e-10
1.47109e-10
1.46831e-10
1.4659e-10
1.46389e-10
1.46227e-10
1.46105e-10
1.46023e-10
1.45982e-10
1.45982e-10
1.46023e-10
1.46105e-10
1.46227e-10
1.46389e-10
1.4659e-10
1.46831e-10
1.47109e-10
1.47425e-10
1.47777e-10
1.48164e-10
1.48584e-10
1.49036e-10
1.49519e-10
1.5003e-10
1.50568e-10
1.51131e-10
1.51715e-10
1.52319e-10
1.52941e-10
1.53576e-10
1.54223e-10
1.54878e-10
1.55537e-10
1.56197e-10
1.56855e-10
1.57505e-10
1.58144e-10
1.58767e-10
1.5937e-10
1.59948e-10
1.60495e-10
1.61006e-10
1.61475e-10
1.61897e-10
1.62265e-10
1.62574e-10
1.62815e-10
1.62983e-10
1.63071e-10
1.78048e-10
1.77957e-10
1.77782e-10
1.77531e-10
1.7721e-10
1.76827e-10
1.76387e-10
1.75898e-10
1.75365e-10
1.74794e-10
1.74191e-10
1.73562e-10
1.7291e-10
1.72242e-10
1.71562e-10
1.70874e-10
1.70182e-10
1.69492e-10
1.68805e-10
1.68127e-10
1.6746e-10
1.66808e-10
1.66174e-10
1.6556e-10
1.64969e-10
1.64404e-10
1.63866e-10
1.63359e-10
1.62883e-10
1.62441e-10
1.62034e-10
1.61664e-10
1.61332e-10
1.61038e-10
1.60785e-10
1.60573e-10
1.60402e-10
1.60274e-10
1.60188e-10
1.60145e-10
1.60145e-10
1.60188e-10
1.60274e-10
1.60402e-10
1.60573e-10
1.60785e-10
1.61038e-10
1.61331e-10
1.61664e-10
1.62034e-10
1.62441e-10
1.62883e-10
1.63359e-10
1.63866e-10
1.64404e-10
1.64969e-10
1.6556e-10
1.66174e-10
1.66808e-10
1.6746e-10
1.68127e-10
1.68805e-10
1.69491e-10
1.70182e-10
1.70874e-10
1.71561e-10
1.72242e-10
1.7291e-10
1.73562e-10
1.74191e-10
1.74794e-10
1.75365e-10
1.75898e-10
1.76387e-10
1.76826e-10
1.7721e-10
1.77531e-10
1.77782e-10
1.77957e-10
1.78048e-10
1.93387e-10
1.93292e-10
1.93111e-10
1.9285e-10
1.92517e-10
1.92119e-10
1.91663e-10
1.91154e-10
1.906e-10
1.90006e-10
1.89379e-10
1.88723e-10
1.88044e-10
1.87348e-10
1.86639e-10
1.85921e-10
1.852e-10
1.84479e-10
1.83762e-10
1.83054e-10
1.82357e-10
1.81675e-10
1.81012e-10
1.8037e-10
1.79752e-10
1.7916e-10
1.78597e-10
1.78066e-10
1.77567e-10
1.77104e-10
1.76678e-10
1.7629e-10
1.75942e-10
1.75634e-10
1.75369e-10
1.75146e-10
1.74967e-10
1.74832e-10
1.74742e-10
1.74697e-10
1.74697e-10
1.74742e-10
1.74832e-10
1.74967e-10
1.75146e-10
1.75369e-10
1.75634e-10
1.75941e-10
1.7629e-10
1.76678e-10
1.77104e-10
1.77567e-10
1.78066e-10
1.78597e-10
1.7916e-10
1.79751e-10
1.8037e-10
1.81012e-10
1.81675e-10
1.82357e-10
1.83054e-10
1.83762e-10
1.84479e-10
1.852e-10
1.85921e-10
1.86639e-10
1.87348e-10
1.88044e-10
1.88723e-10
1.89379e-10
1.90006e-10
1.906e-10
1.91154e-10
1.91663e-10
1.92119e-10
1.92517e-10
1.9285e-10
1.93111e-10
1.93292e-10
1.93387e-10
2.09101e-10
2.09003e-10
2.08815e-10
2.08545e-10
2.08201e-10
2.07788e-10
2.07315e-10
2.06788e-10
2.06213e-10
2.05596e-10
2.04945e-10
2.04264e-10
2.03559e-10
2.02835e-10
2.02097e-10
2.01351e-10
2.006e-10
1.9985e-10
1.99104e-10
1.98366e-10
1.9764e-10
1.9693e-10
1.96238e-10
1.95569e-10
1.94924e-10
1.94307e-10
1.9372e-10
1.93165e-10
1.92645e-10
1.92161e-10
1.91716e-10
1.91311e-10
1.90947e-10
1.90626e-10
1.90349e-10
1.90116e-10
1.89929e-10
1.89788e-10
1.89694e-10
1.89647e-10
1.89647e-10
1.89694e-10
1.89788e-10
1.89929e-10
1.90116e-10
1.90349e-10
1.90626e-10
1.90947e-10
1.91311e-10
1.91716e-10
1.92161e-10
1.92645e-10
1.93165e-10
1.9372e-10
1.94307e-10
1.94924e-10
1.95569e-10
1.96238e-10
1.9693e-10
1.9764e-10
1.98366e-10
1.99104e-10
1.9985e-10
2.006e-10
2.01351e-10
2.02097e-10
2.02835e-10
2.03559e-10
2.04264e-10
2.04945e-10
2.05596e-10
2.06213e-10
2.06787e-10
2.07315e-10
2.07788e-10
2.08201e-10
2.08545e-10
2.08815e-10
2.09003e-10
2.09101e-10
2.25203e-10
2.25102e-10
2.24908e-10
2.24629e-10
2.24272e-10
2.23846e-10
2.23356e-10
2.2281e-10
2.22215e-10
2.21577e-10
2.20901e-10
2.20196e-10
2.19464e-10
2.18714e-10
2.17949e-10
2.17174e-10
2.16395e-10
2.15616e-10
2.14841e-10
2.14074e-10
2.1332e-10
2.12582e-10
2.11863e-10
2.11166e-10
2.10496e-10
2.09854e-10
2.09243e-10
2.08666e-10
2.08124e-10
2.07621e-10
2.07157e-10
2.06735e-10
2.06356e-10
2.06022e-10
2.05733e-10
2.05491e-10
2.05296e-10
2.05149e-10
2.05051e-10
2.05002e-10
2.05002e-10
2.05051e-10
2.05149e-10
2.05296e-10
2.05491e-10
2.05733e-10
2.06022e-10
2.06356e-10
2.06735e-10
2.07157e-10
2.07621e-10
2.08124e-10
2.08666e-10
2.09243e-10
2.09854e-10
2.10496e-10
2.11166e-10
2.11863e-10
2.12582e-10
2.1332e-10
2.14074e-10
2.14841e-10
2.15616e-10
2.16395e-10
2.17174e-10
2.17948e-10
2.18714e-10
2.19464e-10
2.20195e-10
2.20901e-10
2.21576e-10
2.22215e-10
2.2281e-10
2.23356e-10
2.23846e-10
2.24272e-10
2.24629e-10
2.24908e-10
2.25102e-10
2.25203e-10
2.41706e-10
2.41602e-10
2.41402e-10
2.41114e-10
2.40745e-10
2.40304e-10
2.39798e-10
2.39234e-10
2.38619e-10
2.37959e-10
2.3726e-10
2.3653e-10
2.35773e-10
2.34996e-10
2.34204e-10
2.33402e-10
2.32594e-10
2.31787e-10
2.30984e-10
2.30189e-10
2.29407e-10
2.28641e-10
2.27895e-10
2.27173e-10
2.26477e-10
2.2581e-10
2.25176e-10
2.24577e-10
2.24015e-10
2.23492e-10
2.2301e-10
2.22572e-10
2.22178e-10
2.21831e-10
2.2153e-10
2.21279e-10
2.21076e-10
2.20924e-10
2.20822e-10
2.20771e-10
2.20771e-10
2.20822e-10
2.20924e-10
2.21076e-10
2.21279e-10
2.2153e-10
2.21831e-10
2.22178e-10
2.22572e-10
2.2301e-10
2.23492e-10
2.24014e-10
2.24577e-10
2.25176e-10
2.2581e-10
2.26477e-10
2.27173e-10
2.27895e-10
2.28641e-10
2.29407e-10
2.30189e-10
2.30984e-10
2.31787e-10
2.32594e-10
2.33401e-10
2.34204e-10
2.34996e-10
2.35773e-10
2.3653e-10
2.3726e-10
2.37959e-10
2.38619e-10
2.39234e-10
2.39798e-10
2.40304e-10
2.40745e-10
2.41113e-10
2.41402e-10
2.41602e-10
2.41706e-10
2.58623e-10
2.58515e-10
2.58309e-10
2.58012e-10
2.57632e-10
2.57177e-10
2.56655e-10
2.56072e-10
2.55437e-10
2.54755e-10
2.54034e-10
2.53279e-10
2.52497e-10
2.51694e-10
2.50874e-10
2.50045e-10
2.4921e-10
2.48374e-10
2.47543e-10
2.46721e-10
2.45911e-10
2.45118e-10
2.44346e-10
2.43598e-10
2.42877e-10
2.42186e-10
2.41529e-10
2.40908e-10
2.40325e-10
2.39783e-10
2.39284e-10
2.3883e-10
2.38421e-10
2.38061e-10
2.3775e-10
2.37489e-10
2.37279e-10
2.37121e-10
2.37015e-10
2.36962e-10
2.36962e-10
2.37015e-10
2.37121e-10
2.37279e-10
2.37489e-10
2.3775e-10
2.38061e-10
2.38421e-10
2.38829e-10
2.39284e-10
2.39783e-10
2.40325e-10
2.40908e-10
2.41529e-10
2.42186e-10
2.42877e-10
2.43597e-10
2.44346e-10
2.45118e-10
2.45911e-10
2.46721e-10
2.47543e-10
2.48374e-10
2.4921e-10
2.50045e-10
2.50874e-10
2.51693e-10
2.52497e-10
2.53279e-10
2.54034e-10
2.54755e-10
2.55437e-10
2.56072e-10
2.56655e-10
2.57177e-10
2.57632e-10
2.58012e-10
2.58309e-10
2.58515e-10
2.58623e-10
2.75966e-10
2.75856e-10
2.75643e-10
2.75337e-10
2.74945e-10
2.74476e-10
2.73938e-10
2.73337e-10
2.72681e-10
2.71978e-10
2.71234e-10
2.70455e-10
2.69647e-10
2.68818e-10
2.67972e-10
2.67115e-10
2.66253e-10
2.65389e-10
2.64531e-10
2.63681e-10
2.62844e-10
2.62024e-10
2.61225e-10
2.60451e-10
2.59706e-10
2.58992e-10
2.58312e-10
2.57669e-10
2.57066e-10
2.56505e-10
2.55989e-10
2.55518e-10
2.55096e-10
2.54723e-10
2.544e-10
2.5413e-10
2.53913e-10
2.53749e-10
2.5364e-10
2.53585e-10
2.53585e-10
2.53639e-10
2.53749e-10
2.53913e-10
2.5413e-10
2.544e-10
2.54723e-10
2.55096e-10
2.55518e-10
2.55989e-10
2.56505e-10
2.57066e-10
2.57669e-10
2.58312e-10
2.58991e-10
2.59706e-10
2.60451e-10
2.61225e-10
2.62024e-10
2.62843e-10
2.6368e-10
2.6453e-10
2.65389e-10
2.66252e-10
2.67115e-10
2.67972e-10
2.68818e-10
2.69647e-10
2.70455e-10
2.71233e-10
2.71978e-10
2.72681e-10
2.73337e-10
2.73937e-10
2.74476e-10
2.74945e-10
2.75337e-10
2.75643e-10
2.75855e-10
2.75966e-10
2.93749e-10
2.93635e-10
2.93416e-10
2.93101e-10
2.92697e-10
2.92214e-10
2.91659e-10
2.9104e-10
2.90365e-10
2.8964e-10
2.88872e-10
2.88069e-10
2.87237e-10
2.86381e-10
2.85509e-10
2.84625e-10
2.83735e-10
2.82844e-10
2.81957e-10
2.8108e-10
2.80216e-10
2.79369e-10
2.78544e-10
2.77745e-10
2.76975e-10
2.76237e-10
2.75535e-10
2.74871e-10
2.74248e-10
2.73668e-10
2.73134e-10
2.72648e-10
2.72211e-10
2.71825e-10
2.71492e-10
2.71213e-10
2.70988e-10
2.70819e-10
2.70706e-10
2.70649e-10
2.70649e-10
2.70706e-10
2.70819e-10
2.70988e-10
2.71213e-10
2.71492e-10
2.71825e-10
2.72211e-10
2.72648e-10
2.73134e-10
2.73668e-10
2.74248e-10
2.74871e-10
2.75535e-10
2.76237e-10
2.76975e-10
2.77745e-10
2.78544e-10
2.79369e-10
2.80215e-10
2.8108e-10
2.81957e-10
2.82844e-10
2.83734e-10
2.84624e-10
2.85508e-10
2.86381e-10
2.87237e-10
2.88069e-10
2.88872e-10
2.8964e-10
2.90365e-10
2.9104e-10
2.91659e-10
2.92214e-10
2.92697e-10
2.93101e-10
2.93416e-10
2.93635e-10
2.93749e-10
3.11984e-10
3.11867e-10
3.11641e-10
3.11317e-10
3.10902e-10
3.10404e-10
3.09833e-10
3.09196e-10
3.085e-10
3.07753e-10
3.06963e-10
3.06135e-10
3.05277e-10
3.04396e-10
3.03496e-10
3.02585e-10
3.01667e-10
3.00749e-10
2.99835e-10
2.9893e-10
2.98039e-10
2.97165e-10
2.96315e-10
2.9549e-10
2.94695e-10
2.93934e-10
2.93209e-10
2.92524e-10
2.9188e-10
2.91282e-10
2.90731e-10
2.90229e-10
2.89778e-10
2.8938e-10
2.89036e-10
2.88747e-10
2.88515e-10
2.8834e-10
2.88223e-10
2.88165e-10
2.88165e-10
2.88223e-10
2.8834e-10
2.88515e-10
2.88747e-10
2.89036e-10
2.8938e-10
2.89778e-10
2.90229e-10
2.90731e-10
2.91282e-10
2.9188e-10
2.92523e-10
2.93209e-10
2.93934e-10
2.94695e-10
2.9549e-10
2.96314e-10
2.97165e-10
2.98038e-10
2.9893e-10
2.99835e-10
3.00749e-10
3.01667e-10
3.02585e-10
3.03496e-10
3.04396e-10
3.05277e-10
3.06135e-10
3.06962e-10
3.07753e-10
3.085e-10
3.09196e-10
3.09833e-10
3.10404e-10
3.10901e-10
3.11317e-10
3.11641e-10
3.11867e-10
3.11984e-10
3.30684e-10
3.30564e-10
3.30332e-10
3.29998e-10
3.29571e-10
3.29059e-10
3.28471e-10
3.27815e-10
3.27099e-10
3.26331e-10
3.25517e-10
3.24665e-10
3.23782e-10
3.22874e-10
3.21947e-10
3.21009e-10
3.20063e-10
3.19117e-10
3.18175e-10
3.17243e-10
3.16324e-10
3.15424e-10
3.14547e-10
3.13697e-10
3.12878e-10
3.12093e-10
3.11346e-10
3.10639e-10
3.09976e-10
3.09359e-10
3.0879e-10
3.08272e-10
3.07807e-10
3.07396e-10
3.07042e-10
3.06744e-10
3.06505e-10
3.06324e-10
3.06204e-10
3.06143e-10
3.06143e-10
3.06204e-10
3.06324e-10
3.06504e-10
3.06744e-10
3.07042e-10
3.07396e-10
3.07807e-10
3.08272e-10
3.0879e-10
3.09358e-10
3.09975e-10
3.10639e-10
3.11345e-10
3.12093e-10
3.12878e-10
3.13697e-10
3.14547e-10
3.15424e-10
3.16324e-10
3.17243e-10
3.18175e-10
3.19117e-10
3.20063e-10
3.21008e-10
3.21947e-10
3.22873e-10
3.23781e-10
3.24665e-10
3.25517e-10
3.26331e-10
3.27099e-10
3.27815e-10
3.28471e-10
3.29059e-10
3.29571e-10
3.29998e-10
3.30332e-10
3.30563e-10
3.30684e-10
3.49863e-10
3.49739e-10
3.49501e-10
3.49157e-10
3.48718e-10
3.48192e-10
3.47587e-10
3.46913e-10
3.46176e-10
3.45385e-10
3.44548e-10
3.43671e-10
3.42762e-10
3.41828e-10
3.40874e-10
3.39908e-10
3.38935e-10
3.37961e-10
3.36991e-10
3.36031e-10
3.35085e-10
3.34158e-10
3.33255e-10
3.32379e-10
3.31535e-10
3.30726e-10
3.29956e-10
3.29228e-10
3.28545e-10
3.27909e-10
3.27323e-10
3.26789e-10
3.2631e-10
3.25887e-10
3.25521e-10
3.25214e-10
3.24967e-10
3.24782e-10
3.24657e-10
3.24595e-10
3.24595e-10
3.24657e-10
3.24782e-10
3.24967e-10
3.25214e-10
3.25521e-10
3.25887e-10
3.2631e-10
3.26789e-10
3.27323e-10
3.27909e-10
3.28544e-10
3.29228e-10
3.29956e-10
3.30726e-10
3.31535e-10
3.32379e-10
3.33254e-10
3.34158e-10
3.35084e-10
3.3603e-10
3.36991e-10
3.37961e-10
3.38935e-10
3.39908e-10
3.40874e-10
3.41828e-10
3.42762e-10
3.43671e-10
3.44548e-10
3.45385e-10
3.46176e-10
3.46913e-10
3.47587e-10
3.48192e-10
3.48718e-10
3.49157e-10
3.49501e-10
3.49739e-10
3.49863e-10
3.69534e-10
3.69406e-10
3.69162e-10
3.68809e-10
3.68357e-10
3.67816e-10
3.67195e-10
3.66501e-10
3.65743e-10
3.6493e-10
3.64069e-10
3.63167e-10
3.62232e-10
3.61271e-10
3.6029e-10
3.59296e-10
3.58295e-10
3.57292e-10
3.56294e-10
3.55306e-10
3.54332e-10
3.53378e-10
3.52448e-10
3.51547e-10
3.50678e-10
3.49846e-10
3.49053e-10
3.48303e-10
3.47599e-10
3.46944e-10
3.46341e-10
3.45792e-10
3.45298e-10
3.44862e-10
3.44485e-10
3.44169e-10
3.43915e-10
3.43724e-10
3.43596e-10
3.43532e-10
3.43532e-10
3.43596e-10
3.43724e-10
3.43915e-10
3.44169e-10
3.44485e-10
3.44862e-10
3.45298e-10
3.45792e-10
3.46341e-10
3.46944e-10
3.47599e-10
3.48303e-10
3.49053e-10
3.49845e-10
3.50678e-10
3.51547e-10
3.52448e-10
3.53378e-10
3.54332e-10
3.55306e-10
3.56294e-10
3.57292e-10
3.58294e-10
3.59296e-10
3.6029e-10
3.61271e-10
3.62232e-10
3.63167e-10
3.64069e-10
3.6493e-10
3.65743e-10
3.66501e-10
3.67194e-10
3.67816e-10
3.68357e-10
3.68808e-10
3.69161e-10
3.69406e-10
3.69534e-10
3.8971e-10
3.89579e-10
3.89328e-10
3.88965e-10
3.88501e-10
3.87945e-10
3.87306e-10
3.86593e-10
3.85815e-10
3.84979e-10
3.84093e-10
3.83166e-10
3.82205e-10
3.81216e-10
3.80208e-10
3.79185e-10
3.78156e-10
3.77124e-10
3.76098e-10
3.75081e-10
3.7408e-10
3.73098e-10
3.72142e-10
3.71214e-10
3.7032e-10
3.69463e-10
3.68648e-10
3.67876e-10
3.67152e-10
3.66478e-10
3.65857e-10
3.65291e-10
3.64783e-10
3.64335e-10
3.63947e-10
3.63622e-10
3.6336e-10
3.63163e-10
3.63031e-10
3.62965e-10
3.62965e-10
3.63031e-10
3.63163e-10
3.6336e-10
3.63622e-10
3.63947e-10
3.64334e-10
3.64783e-10
3.65291e-10
3.65857e-10
3.66478e-10
3.67152e-10
3.67876e-10
3.68647e-10
3.69463e-10
3.7032e-10
3.71214e-10
3.72141e-10
3.73098e-10
3.7408e-10
3.75081e-10
3.76098e-10
3.77124e-10
3.78155e-10
3.79185e-10
3.80207e-10
3.81216e-10
3.82205e-10
3.83166e-10
3.84093e-10
3.84978e-10
3.85814e-10
3.86593e-10
3.87306e-10
3.87945e-10
3.88501e-10
3.88965e-10
3.89328e-10
3.89579e-10
3.8971e-10
4.10406e-10
4.10272e-10
4.10013e-10
4.09641e-10
4.09164e-10
4.08593e-10
4.07937e-10
4.07204e-10
4.06404e-10
4.05545e-10
4.04635e-10
4.03682e-10
4.02694e-10
4.01678e-10
4.00641e-10
3.9959e-10
3.98531e-10
3.97471e-10
3.96415e-10
3.9537e-10
3.9434e-10
3.93331e-10
3.92347e-10
3.91393e-10
3.90474e-10
3.89593e-10
3.88753e-10
3.8796e-10
3.87215e-10
3.86522e-10
3.85883e-10
3.85301e-10
3.84778e-10
3.84317e-10
3.83918e-10
3.83583e-10
3.83314e-10
3.83111e-10
3.82976e-10
3.82908e-10
3.82908e-10
3.82976e-10
3.83111e-10
3.83314e-10
3.83583e-10
3.83918e-10
3.84317e-10
3.84778e-10
3.85301e-10
3.85883e-10
3.86521e-10
3.87215e-10
3.8796e-10
3.88753e-10
3.89592e-10
3.90474e-10
3.91393e-10
3.92347e-10
3.93331e-10
3.9434e-10
3.9537e-10
3.96415e-10
3.97471e-10
3.98531e-10
3.99589e-10
4.0064e-10
4.01677e-10
4.02693e-10
4.03682e-10
4.04634e-10
4.05544e-10
4.06403e-10
4.07204e-10
4.07936e-10
4.08593e-10
4.09164e-10
4.09641e-10
4.10013e-10
4.10272e-10
4.10406e-10
4.31636e-10
4.31498e-10
4.31233e-10
4.3085e-10
4.3036e-10
4.29774e-10
4.29099e-10
4.28347e-10
4.27524e-10
4.26642e-10
4.25707e-10
4.24728e-10
4.23712e-10
4.22668e-10
4.21603e-10
4.20522e-10
4.19434e-10
4.18345e-10
4.1726e-10
4.16185e-10
4.15127e-10
4.14089e-10
4.13078e-10
4.12097e-10
4.11152e-10
4.10246e-10
4.09383e-10
4.08567e-10
4.07801e-10
4.07088e-10
4.06432e-10
4.05833e-10
4.05296e-10
4.04821e-10
4.04411e-10
4.04067e-10
4.0379e-10
4.03581e-10
4.03442e-10
4.03372e-10
4.03372e-10
4.03442e-10
4.03581e-10
4.0379e-10
4.04067e-10
4.04411e-10
4.04821e-10
4.05296e-10
4.05833e-10
4.06432e-10
4.07088e-10
4.07801e-10
4.08567e-10
4.09383e-10
4.10246e-10
4.11152e-10
4.12097e-10
4.13078e-10
4.14089e-10
4.15127e-10
4.16185e-10
4.1726e-10
4.18345e-10
4.19434e-10
4.20522e-10
4.21602e-10
4.22668e-10
4.23712e-10
4.24728e-10
4.25707e-10
4.26642e-10
4.27524e-10
4.28346e-10
4.29099e-10
4.29773e-10
4.3036e-10
4.3085e-10
4.31232e-10
4.31498e-10
4.31636e-10
4.53414e-10
4.53273e-10
4.53e-10
4.52607e-10
4.52104e-10
4.51501e-10
4.50809e-10
4.50036e-10
4.49191e-10
4.48285e-10
4.47324e-10
4.46318e-10
4.45275e-10
4.44203e-10
4.43108e-10
4.41998e-10
4.4088e-10
4.3976e-10
4.38646e-10
4.37541e-10
4.36454e-10
4.35387e-10
4.34348e-10
4.3334e-10
4.32369e-10
4.31437e-10
4.30551e-10
4.29712e-10
4.28925e-10
4.28192e-10
4.27517e-10
4.26902e-10
4.26349e-10
4.25861e-10
4.25439e-10
4.25086e-10
4.24801e-10
4.24587e-10
4.24443e-10
4.24372e-10
4.24372e-10
4.24443e-10
4.24587e-10
4.24801e-10
4.25086e-10
4.25439e-10
4.25861e-10
4.26349e-10
4.26902e-10
4.27517e-10
4.28192e-10
4.28924e-10
4.29712e-10
4.3055e-10
4.31437e-10
4.32368e-10
4.3334e-10
4.34348e-10
4.35387e-10
4.36453e-10
4.37541e-10
4.38645e-10
4.3976e-10
4.4088e-10
4.41998e-10
4.43108e-10
4.44202e-10
4.45275e-10
4.46318e-10
4.47324e-10
4.48284e-10
4.49191e-10
4.50035e-10
4.50809e-10
4.51501e-10
4.52104e-10
4.52607e-10
4.53e-10
4.53272e-10
4.53414e-10
4.75755e-10
4.7561e-10
4.7533e-10
4.74926e-10
4.7441e-10
4.73791e-10
4.7308e-10
4.72286e-10
4.71419e-10
4.70487e-10
4.69501e-10
4.68468e-10
4.67397e-10
4.66295e-10
4.6517e-10
4.6403e-10
4.62882e-10
4.61732e-10
4.60587e-10
4.59452e-10
4.58334e-10
4.57239e-10
4.56171e-10
4.55136e-10
4.54137e-10
4.53181e-10
4.52269e-10
4.51407e-10
4.50598e-10
4.49845e-10
4.49152e-10
4.4852e-10
4.47952e-10
4.4745e-10
4.47017e-10
4.46653e-10
4.46361e-10
4.46141e-10
4.45993e-10
4.4592e-10
4.4592e-10
4.45993e-10
4.46141e-10
4.46361e-10
4.46653e-10
4.47017e-10
4.4745e-10
4.47952e-10
4.4852e-10
4.49152e-10
4.49845e-10
4.50598e-10
4.51407e-10
4.52269e-10
4.5318e-10
4.54137e-10
4.55136e-10
4.56171e-10
4.57239e-10
4.58334e-10
4.59452e-10
4.60586e-10
4.61732e-10
4.62882e-10
4.6403e-10
4.6517e-10
4.66295e-10
4.67396e-10
4.68468e-10
4.69501e-10
4.70487e-10
4.71418e-10
4.72286e-10
4.7308e-10
4.73791e-10
4.7441e-10
4.74926e-10
4.75329e-10
4.75609e-10
4.75755e-10
4.98674e-10
4.98525e-10
4.98237e-10
4.97823e-10
4.97293e-10
4.96658e-10
4.95927e-10
4.95112e-10
4.94222e-10
4.93266e-10
4.92253e-10
4.91192e-10
4.90092e-10
4.8896e-10
4.87805e-10
4.86634e-10
4.85455e-10
4.84274e-10
4.83097e-10
4.81932e-10
4.80784e-10
4.79659e-10
4.78562e-10
4.77498e-10
4.76473e-10
4.7549e-10
4.74554e-10
4.73668e-10
4.72837e-10
4.72063e-10
4.71351e-10
4.70701e-10
4.70118e-10
4.69603e-10
4.69157e-10
4.68784e-10
4.68483e-10
4.68257e-10
4.68106e-10
4.6803e-10
4.6803e-10
4.68106e-10
4.68257e-10
4.68483e-10
4.68784e-10
4.69157e-10
4.69603e-10
4.70118e-10
4.70701e-10
4.71351e-10
4.72063e-10
4.72837e-10
4.73668e-10
4.74553e-10
4.75489e-10
4.76472e-10
4.77498e-10
4.78562e-10
4.79659e-10
4.80784e-10
4.81932e-10
4.83097e-10
4.84273e-10
4.85455e-10
4.86634e-10
4.87805e-10