/*--------------------------------*- C++ -*----------------------------------*\
  =========                 |
  \\      /  F ield         | OpenFOAM: The Open Source CFD Toolbox
   \\    /   O peration     | Website:  https://openfoam.org
    \\  /    A nd           | Version:  11
     \\/     M anipulation  |
\*---------------------------------------------------------------------------*/
FoamFile
{
    format      ascii;
    class       volScalarField;
    location    "5";
    object      C;
}
// * * * * * * * * * * * * * * * * * * * * * * * * * * * * * * * * * * * * * //

dimensions      [0 0 0 1 0 0 0];

internalField   nonuniform List<scalar> 
332800
(
3.02401e-65
2.96437e-65
2.86393e-65
2.73536e-65
2.5879e-65
2.42862e-65
2.26305e-65
2.09557e-65
1.92962e-65
1.76784e-65
1.61222e-65
1.46421e-65
1.32478e-65
1.19454e-65
1.07378e-65
9.62544e-66
8.60688e-66
7.67916e-66
6.83828e-66
6.07949e-66
5.39756e-66
4.78703e-66
4.24235e-66
3.75805e-66
3.3288e-66
2.94954e-66
2.6155e-66
2.32223e-66
2.06564e-66
1.842e-66
1.64793e-66
1.48041e-66
1.33675e-66
1.2146e-66
1.11192e-66
1.02696e-66
9.58247e-67
9.04581e-67
8.65015e-67
8.38845e-67
8.25604e-67
8.25051e-67
8.37171e-67
8.62174e-67
9.00495e-67
9.52793e-67
1.01997e-66
1.10315e-66
1.20372e-66
1.32332e-66
1.46386e-66
1.6275e-66
1.81672e-66
2.03425e-66
2.2831e-66
2.56659e-66
2.88826e-66
3.25189e-66
3.66147e-66
4.1211e-66
4.63494e-66
5.2071e-66
5.84149e-66
6.5417e-66
7.31074e-66
8.15082e-66
9.06303e-66
1.0047e-65
1.11006e-65
1.22192e-65
1.33954e-65
1.46182e-65
1.58728e-65
1.71389e-65
1.83908e-65
1.95952e-65
2.07103e-65
2.16827e-65
2.24424e-65
2.28935e-65
9.35777e-65
9.21902e-65
8.97063e-65
8.63776e-65
8.24198e-65
7.80175e-65
7.33271e-65
6.84801e-65
6.35852e-65
5.87313e-65
5.39889e-65
4.94131e-65
4.50446e-65
4.09128e-65
3.70364e-65
3.3426e-65
3.00852e-65
2.70121e-65
2.42003e-65
2.16402e-65
1.93199e-65
1.72258e-65
1.53431e-65
1.3657e-65
1.21523e-65
1.08142e-65
9.62837e-66
8.58129e-66
7.66023e-66
6.85338e-66
6.14995e-66
5.54011e-66
5.01507e-66
4.56703e-66
4.18914e-66
3.8755e-66
3.62115e-66
3.42195e-66
3.27467e-66
3.17684e-66
3.12685e-66
3.12381e-66
3.16764e-66
3.25902e-66
3.39937e-66
3.5909e-66
3.83657e-66
4.14016e-66
4.50622e-66
4.94013e-66
5.44806e-66
6.03704e-66
6.71487e-66
7.49016e-66
8.37226e-66
9.37118e-66
1.04975e-65
1.17623e-65
1.31768e-65
1.47522e-65
1.64994e-65
1.84286e-65
2.05489e-65
2.28673e-65
2.53885e-65
2.81141e-65
3.10412e-65
3.41619e-65
3.74617e-65
4.09188e-65
4.45021e-65
4.81701e-65
5.18693e-65
5.55328e-65
5.90782e-65
6.24061e-65
6.53983e-65
6.79151e-65
6.97933e-65
7.08425e-65
1.62825e-64
1.6075e-64
1.56956e-64
1.51775e-64
1.45512e-64
1.38441e-64
1.30805e-64
1.22817e-64
1.14658e-64
1.06481e-64
9.84121e-65
9.05531e-65
8.29833e-65
7.57624e-65
6.8933e-65
6.25229e-65
5.65472e-65
5.10111e-65
4.5911e-65
4.12371e-65
3.69742e-65
3.31036e-65
2.96039e-65
2.64521e-65
2.36246e-65
2.10976e-65
1.88474e-65
1.68516e-65
1.50884e-65
1.35377e-65
1.21807e-65
1.10002e-65
9.98048e-66
9.10774e-66
8.36963e-66
7.7555e-66
7.25626e-66
6.86438e-66
6.57388e-66
6.38022e-66
6.28033e-66
6.27257e-66
6.3567e-66
6.53387e-66
6.80663e-66
7.17889e-66
7.65596e-66
8.24456e-66
8.95277e-66
9.79009e-66
1.07674e-65
1.18968e-65
1.31919e-65
1.46673e-65
1.63388e-65
1.8223e-65
2.03373e-65
2.26994e-65
2.53267e-65
2.82365e-65
3.14445e-65
3.49648e-65
3.88086e-65
4.29832e-65
4.74911e-65
5.23285e-65
5.74836e-65
6.29355e-65
6.86518e-65
7.45875e-65
8.06825e-65
8.68599e-65
9.30245e-65
9.90606e-65
1.04831e-64
1.10175e-64
1.14908e-64
1.18825e-64
1.21693e-64
1.23261e-64
2.40666e-64
2.37903e-64
2.32797e-64
2.25751e-64
2.17151e-64
2.07352e-64
1.96677e-64
1.85415e-64
1.73819e-64
1.62109e-64
1.50468e-64
1.39049e-64
1.27974e-64
1.17339e-64
1.07215e-64
9.76536e-65
8.8686e-65
8.03291e-65
7.25866e-65
6.54518e-65
5.89097e-65
5.2939e-65
4.75134e-65
4.26039e-65
3.81792e-65
3.42071e-65
3.06553e-65
2.74922e-65
2.46872e-65
2.22113e-65
2.00372e-65
1.81398e-65
1.64961e-65
1.50853e-65
1.38892e-65
1.28916e-65
1.20789e-65
1.14395e-65
1.09643e-65
1.06463e-65
1.04808e-65
1.04651e-65
1.05988e-65
1.08836e-65
1.13231e-65
1.19231e-65
1.26916e-65
1.36384e-65
1.47755e-65
1.61168e-65
1.76782e-65
1.94773e-65
2.15336e-65
2.38679e-65
2.65025e-65
2.94605e-65
3.27656e-65
3.64415e-65
4.05113e-65
4.49966e-65
4.99166e-65
5.52872e-65
6.11195e-65
6.74181e-65
7.41801e-65
8.13927e-65
8.90315e-65
9.70582e-65
1.05419e-64
1.1404e-64
1.22831e-64
1.31675e-64
1.40433e-64
1.4894e-64
1.57005e-64
1.64409e-64
1.70907e-64
1.76231e-64
1.8009e-64
1.82178e-64
3.29814e-64
3.26308e-64
3.19786e-64
3.10734e-64
2.99615e-64
2.86869e-64
2.72902e-64
2.58081e-64
2.42733e-64
2.27145e-64
2.11563e-64
1.96195e-64
1.8121e-64
1.66745e-64
1.52905e-64
1.39766e-64
1.27383e-64
1.15786e-64
1.04992e-64
9.49977e-65
8.57924e-65
7.73539e-65
6.9653e-65
6.26555e-65
5.63234e-65
5.0617e-65
4.54952e-65
4.09176e-65
3.68443e-65
3.32371e-65
3.00599e-65
2.72789e-65
2.48633e-65
2.27848e-65
2.10183e-65
1.95418e-65
1.83362e-65
1.73858e-65
1.66776e-65
1.6202e-65
1.59522e-65
1.59244e-65
1.61178e-65
1.65346e-65
1.71796e-65
1.80607e-65
1.91886e-65
2.05767e-65
2.2241e-65
2.42001e-65
2.64754e-65
2.90902e-65
3.20702e-65
3.54425e-65
3.92359e-65
4.348e-65
4.82044e-65
5.34385e-65
5.921e-65
6.55442e-65
7.24624e-65
7.99804e-65
8.81074e-65
9.68431e-65
1.06176e-64
1.16083e-64
1.26522e-64
1.37435e-64
1.48743e-64
1.60342e-64
1.72104e-64
1.83872e-64
1.95461e-64
2.06653e-64
2.17202e-64
2.26829e-64
2.35227e-64
2.42066e-64
2.46993e-64
2.49642e-64
4.33223e-64
4.28878e-64
4.20765e-64
4.09459e-64
3.95517e-64
3.79471e-64
3.61814e-64
3.43e-64
3.23437e-64
3.03485e-64
2.83458e-64
2.63624e-64
2.44204e-64
2.25381e-64
2.07296e-64
1.90059e-64
1.73747e-64
1.58411e-64
1.44078e-64
1.30758e-64
1.18441e-64
1.07109e-64
9.67284e-65
8.72623e-65
7.86665e-65
7.08936e-65
6.38943e-65
5.76186e-65
5.20173e-65
4.70425e-65
4.26487e-65
3.87927e-65
3.54351e-65
3.25393e-65
3.00729e-65
2.80072e-65
2.63172e-65
2.49821e-65
2.39849e-65
2.33127e-65
2.29565e-65
2.29111e-65
2.31753e-65
2.37515e-65
2.46461e-65
2.58691e-65
2.7434e-65
2.9358e-65
3.16617e-65
3.43688e-65
3.75062e-65
4.11035e-65
4.51926e-65
4.98076e-65
5.49836e-65
6.07568e-65
6.71628e-65
7.4236e-65
8.20086e-65
9.05085e-65
9.9758e-65
1.09772e-64
1.20556e-64
1.32103e-64
1.44391e-64
1.57381e-64
1.71016e-64
1.85211e-64
1.99859e-64
2.14824e-64
2.29935e-64
2.44993e-64
2.59759e-64
2.73962e-64
2.87292e-64
2.99408e-64
3.09935e-64
3.18473e-64
3.246e-64
3.27882e-64
5.54237e-64
5.48923e-64
5.38976e-64
5.25078e-64
5.07894e-64
4.8806e-64
4.66173e-64
4.42782e-64
4.18388e-64
3.93432e-64
3.68305e-64
3.4334e-64
3.1882e-64
2.94976e-64
2.71994e-64
2.50017e-64
2.29153e-64
2.09473e-64
1.91022e-64
1.73818e-64
1.5786e-64
1.43131e-64
1.29597e-64
1.17218e-64
1.05943e-64
9.57174e-65
8.64832e-65
7.81808e-65
7.07507e-65
6.41348e-65
5.8277e-65
5.31245e-65
4.86278e-65
4.47417e-65
4.14253e-65
3.86423e-65
3.63614e-65
3.45559e-65
3.32044e-65
3.22901e-65
3.18014e-65
3.17315e-65
3.20787e-65
3.28457e-65
3.40402e-65
3.56746e-65
3.77657e-65
4.03347e-65
4.34069e-65
4.70118e-65
5.11822e-65
5.59543e-65
6.13671e-65
6.74614e-65
7.42794e-65
8.18638e-65
9.02565e-65
9.94969e-65
1.09621e-64
1.20659e-64
1.32635e-64
1.45559e-64
1.59434e-64
1.74242e-64
1.89951e-64
2.06505e-64
2.23824e-64
2.41797e-64
2.60285e-64
2.79113e-64
2.98066e-64
3.16892e-64
3.35299e-64
3.52949e-64
3.69467e-64
3.84437e-64
3.97408e-64
4.079e-64
4.1541e-64
4.19422e-64
6.96732e-64
6.90283e-64
6.78191e-64
6.61267e-64
6.40302e-64
6.16057e-64
5.89247e-64
5.60536e-64
5.30525e-64
4.99756e-64
4.68702e-64
4.37775e-64
4.07324e-64
3.7764e-64
3.48956e-64
3.21457e-64
2.95281e-64
2.70527e-64
2.47257e-64
2.25503e-64
2.05272e-64
1.86549e-64
1.69301e-64
1.53483e-64
1.3904e-64
1.25908e-64
1.1402e-64
1.03306e-64
9.36951e-65
8.51184e-65
7.75084e-65
7.08006e-65
6.49353e-65
5.98569e-65
5.55153e-65
5.18659e-65
4.88697e-65
4.64939e-65
4.47115e-65
4.35016e-65
4.28496e-65
4.27469e-65
4.31907e-65
4.41843e-65
4.57369e-65
4.78633e-65
5.05839e-65
5.39242e-65
5.79151e-65
6.25918e-65
6.7994e-65
7.41651e-65
8.11515e-65
8.90016e-65
9.77652e-65
1.07492e-64
1.1823e-64
1.30025e-64
1.42915e-64
1.56935e-64
1.72105e-64
1.88437e-64
2.05923e-64
2.24539e-64
2.44236e-64
2.6494e-64
2.86544e-64
3.0891e-64
3.31859e-64
3.55173e-64
3.78587e-64
4.0179e-64
4.24425e-64
4.46082e-64
4.66307e-64
4.846e-64
5.00419e-64
5.13191e-64
5.22316e-64
5.27184e-64
8.65252e-64
8.57463e-64
8.42843e-64
8.22353e-64
7.96939e-64
7.67507e-64
7.34915e-64
6.99957e-64
6.63358e-64
6.25771e-64
5.87769e-64
5.49855e-64
5.12454e-64
4.75924e-64
4.40555e-64
4.06579e-64
3.74171e-64
3.43459e-64
3.14527e-64
2.87422e-64
2.62159e-64
2.38729e-64
2.17098e-64
1.97218e-64
1.79025e-64
1.6245e-64
1.47414e-64
1.33834e-64
1.21629e-64
1.10716e-64
1.01015e-64
9.24484e-65
8.49449e-65
7.84374e-65
7.28654e-65
6.81744e-65
6.43173e-65
6.12536e-65
5.89505e-65
5.73822e-65
5.65306e-65
5.63846e-65
5.69407e-65
5.82026e-65
6.01808e-65
6.28931e-65
6.63636e-65
7.0623e-65
7.57079e-65
8.16603e-65
8.85275e-65
9.63607e-65
1.05215e-64
1.15146e-64
1.26213e-64
1.38474e-64
1.51983e-64
1.6679e-64
1.82942e-64
2.0047e-64
2.19399e-64
2.39734e-64
2.61461e-64
2.84544e-64
3.08917e-64
3.34483e-64
3.61109e-64
3.88619e-64
4.16794e-64
4.45362e-64
4.74002e-64
5.02335e-64
5.29927e-64
5.56286e-64
5.80864e-64
6.03061e-64
6.2223e-64
6.37686e-64
6.48716e-64
6.54593e-64
1.06517e-63
1.05579e-63
1.03818e-63
1.01346e-63
9.82782e-64
9.47216e-64
9.07789e-64
8.65451e-64
8.21075e-64
7.75441e-64
7.29245e-64
6.83091e-64
6.37497e-64
5.92898e-64
5.49651e-64
5.0804e-64
4.68286e-64
4.30548e-64
3.94937e-64
3.61517e-64
3.30313e-64
3.01321e-64
2.74508e-64
2.49821e-64
2.27189e-64
2.06532e-64
1.8776e-64
1.70777e-64
1.55487e-64
1.41793e-64
1.296e-64
1.18817e-64
1.09357e-64
1.01142e-64
9.4097e-65
8.81584e-65
8.32685e-65
7.93787e-65
7.6449e-65
7.44481e-65
7.33536e-65
7.3152e-65
7.38385e-65
7.54171e-65
7.79002e-65
8.13085e-65
8.56706e-65
9.10226e-65
9.7408e-65
1.04876e-64
1.13483e-64
1.23289e-64
1.34358e-64
1.46757e-64
1.60553e-64
1.75812e-64
1.92597e-64
2.10966e-64
2.30967e-64
2.52638e-64
2.76e-64
3.01055e-64
3.2778e-64
3.56126e-64
3.86007e-64
4.17301e-64
4.49842e-64
4.83412e-64
5.17742e-64
5.52503e-64
5.87303e-64
6.21686e-64
6.55128e-64
6.87038e-64
7.16758e-64
7.4357e-64
7.66703e-64
7.85337e-64
7.98623e-64
8.05697e-64
1.30287e-63
1.2916e-63
1.27042e-63
1.24069e-63
1.20375e-63
1.1609e-63
1.11336e-63
1.06227e-63
1.00867e-63
9.53504e-64
8.976e-64
8.41689e-64
7.86396e-64
7.32248e-64
6.79677e-64
6.29034e-64
5.80587e-64
5.34537e-64
4.91022e-64
4.50128e-64
4.11892e-64
3.76313e-64
3.43361e-64
3.12976e-64
2.8508e-64
2.5958e-64
2.36372e-64
2.15347e-64
1.96389e-64
1.79387e-64
1.64227e-64
1.50801e-64
1.39009e-64
1.28755e-64
1.19952e-64
1.12521e-64
1.06396e-64
1.01516e-64
9.78345e-65
9.53131e-65
9.39246e-65
9.36524e-65
9.44905e-65
9.6443e-65
9.95242e-65
1.03758e-64
1.09179e-64
1.15829e-64
1.23759e-64
1.33028e-64
1.43701e-64
1.55848e-64
1.69545e-64
1.84869e-64
2.01899e-64
2.2071e-64
2.41376e-64
2.6396e-64
2.88518e-64
3.1509e-64
3.43695e-64
3.74331e-64
4.06966e-64
4.41534e-64
4.77928e-64
5.15995e-64
5.55529e-64
5.96267e-64
6.3788e-64
6.7997e-64
7.22064e-64
7.63612e-64
8.03986e-64
8.42475e-64
8.78295e-64
9.10585e-64
9.38424e-64
9.60834e-64
9.76802e-64
9.85299e-64
1.58595e-63
1.57242e-63
1.54699e-63
1.51128e-63
1.46689e-63
1.41537e-63
1.35818e-63
1.29668e-63
1.23212e-63
1.16562e-63
1.09818e-63
1.03068e-63
9.63872e-64
8.98387e-64
8.34753e-64
7.7339e-64
7.1463e-64
6.58719e-64
6.05829e-64
5.56067e-64
5.09487e-64
4.66094e-64
4.25855e-64
3.88707e-64
3.5456e-64
3.23307e-64
2.94829e-64
2.68997e-64
2.45678e-64
2.24738e-64
2.06046e-64
1.89474e-64
1.74902e-64
1.62216e-64
1.51314e-64
1.42103e-64
1.34501e-64
1.28437e-64
1.23855e-64
1.20709e-64
1.18966e-64
1.18605e-64
1.1962e-64
1.22013e-64
1.25803e-64
1.31017e-64
1.37695e-64
1.45886e-64
1.55651e-64
1.67058e-64
1.80183e-64
1.95111e-64
2.11927e-64
2.30723e-64
2.5159e-64
2.74615e-64
2.99883e-64
3.27467e-64
3.57428e-64
3.89808e-64
4.24629e-64
4.61881e-64
5.01522e-64
5.43466e-64
5.87582e-64
6.3368e-64
6.8151e-64
7.30752e-64
7.81007e-64
8.31796e-64
8.82551e-64
9.32611e-64
9.81222e-64
1.02753e-63
1.07061e-63
1.10941e-63
1.14285e-63
1.16976e-63
1.18892e-63
1.19912e-63
1.92345e-63
1.90723e-63
1.87673e-63
1.83389e-63
1.78061e-63
1.71876e-63
1.65006e-63
1.57616e-63
1.49854e-63
1.41854e-63
1.33738e-63
1.25609e-63
1.17557e-63
1.0966e-63
1.01981e-63
9.45701e-64
8.7468e-64
8.07046e-64
7.43011e-64
6.8271e-64
6.26212e-64
5.73531e-64
5.24631e-64
4.79442e-64
4.37863e-64
3.99769e-64
3.65023e-64
3.33472e-64
3.04962e-64
2.79336e-64
2.56438e-64
2.36118e-64
2.18232e-64
2.02648e-64
1.89243e-64
1.77907e-64
1.68541e-64
1.61063e-64
1.55403e-64
1.51508e-64
1.49338e-64
1.48868e-64
1.50088e-64
1.53003e-64
1.57633e-64
1.6401e-64
1.7218e-64
1.82202e-64
1.94147e-64
2.08094e-64
2.24134e-64
2.42364e-64
2.62887e-64
2.85808e-64
3.11232e-64
3.39263e-64
3.69996e-64
4.03517e-64
4.39893e-64
4.79173e-64
5.21376e-64
5.66486e-64
6.14449e-64
6.65157e-64
7.18446e-64
7.74089e-64
8.3178e-64
8.91131e-64
9.51665e-64
1.0128e-63
1.07386e-63
1.13405e-63
1.19247e-63
1.2481e-63
1.29981e-63
1.34639e-63
1.3865e-63
1.41877e-63
1.44174e-63
1.45396e-63
2.3262e-63
2.30677e-63
2.27021e-63
2.21885e-63
2.15497e-63
2.08078e-63
1.99836e-63
1.90965e-63
1.81645e-63
1.72037e-63
1.62283e-63
1.5251e-63
1.42826e-63
1.33322e-63
1.24075e-63
1.15146e-63
1.06584e-63
9.8425e-64
9.06947e-64
8.34101e-64
7.65799e-64
7.02061e-64
6.42853e-64
5.88094e-64
5.37668e-64
4.91432e-64
4.49222e-64
4.10863e-64
3.76172e-64
3.44964e-64
3.17055e-64
2.92268e-64
2.70434e-64
2.51394e-64
2.35004e-64
2.21131e-64
2.0966e-64
2.00493e-64
1.93546e-64
1.88754e-64
1.8607e-64
1.85465e-64
1.86926e-64
1.90458e-64
1.96084e-64
2.03842e-64
2.13785e-64
2.25983e-64
2.40519e-64
2.57487e-64
2.76993e-64
2.9915e-64
3.2408e-64
3.51905e-64
3.82748e-64
4.16731e-64
4.53964e-64
4.94545e-64
5.38551e-64
5.86036e-64
6.37019e-64
6.91478e-64
7.4934e-64
8.10476e-64
8.74684e-64
9.41687e-64
1.01112e-63
1.08251e-63
1.15528e-63
1.22875e-63
1.30209e-63
1.37435e-63
1.44446e-63
1.5112e-63
1.57322e-63
1.62906e-63
1.67714e-63
1.7158e-63
1.74333e-63
1.75796e-63
2.80711e-63
2.78383e-63
2.74004e-63
2.67851e-63
2.60196e-63
2.51303e-63
2.41422e-63
2.30784e-63
2.19605e-63
2.08076e-63
1.96368e-63
1.84634e-63
1.73001e-63
1.61581e-63
1.50465e-63
1.39726e-63
1.29423e-63
1.196e-63
1.10288e-63
1.01509e-63
9.32716e-64
8.55805e-64
7.84314e-64
7.18153e-64
6.57187e-64
6.01248e-64
5.50146e-64
5.03675e-64
4.61618e-64
4.23757e-64
3.89876e-64
3.59764e-64
3.33222e-64
3.10061e-64
2.90109e-64
2.73211e-64
2.59228e-64
2.48042e-64
2.39556e-64
2.33691e-64
2.30392e-64
2.29621e-64
2.31365e-64
2.35628e-64
2.42436e-64
2.51834e-64
2.63886e-64
2.78673e-64
2.96291e-64
3.16853e-64
3.40483e-64
3.67313e-64
3.97487e-64
4.31149e-64
4.68444e-64
5.09511e-64
5.5448e-64
6.03466e-64
6.56557e-64
7.13812e-64
7.75251e-64
8.40843e-64
9.10498e-64
9.84056e-64
1.06127e-63
1.14182e-63
1.22524e-63
1.31098e-63
1.39835e-63
1.48652e-63
1.57451e-63
1.66118e-63
1.74524e-63
1.82523e-63
1.89956e-63
1.96645e-63
2.02405e-63
2.07035e-63
2.1033e-63
2.12082e-63
3.38161e-63
3.35375e-63
3.30131e-63
3.22761e-63
3.13592e-63
3.02938e-63
2.91098e-63
2.7835e-63
2.64949e-63
2.51126e-63
2.37086e-63
2.23009e-63
2.09051e-63
1.95343e-63
1.81995e-63
1.69096e-63
1.56716e-63
1.44908e-63
1.3371e-63
1.23147e-63
1.13232e-63
1.03969e-63
9.53557e-64
8.73799e-64
8.00264e-64
7.32756e-64
6.71052e-64
6.14906e-64
5.64066e-64
5.18272e-64
4.77269e-64
4.40806e-64
4.08648e-64
3.80571e-64
3.5637e-64
3.35861e-64
3.18879e-64
3.05284e-64
2.94958e-64
2.8781e-64
2.83772e-64
2.828e-64
2.84875e-64
2.90005e-64
2.98218e-64
3.09568e-64
3.24129e-64
3.41996e-64
3.63285e-64
3.88126e-64
4.16665e-64
4.49062e-64
4.85482e-64
5.26097e-64
5.71076e-64
6.20583e-64
6.74771e-64
7.33771e-64
7.97687e-64
8.66587e-64
9.40488e-64
1.01935e-63
1.10307e-63
1.19144e-63
1.28417e-63
1.38086e-63
1.48098e-63
1.58384e-63
1.68863e-63
1.79435e-63
1.89982e-63
2.00369e-63
2.1044e-63
2.20023e-63
2.28924e-63
2.36935e-63
2.43831e-63
2.49374e-63
2.53318e-63
2.55414e-63
4.06817e-63
4.03482e-63
3.97204e-63
3.8838e-63
3.77401e-63
3.64642e-63
3.50461e-63
3.3519e-63
3.19135e-63
3.0257e-63
2.85743e-63
2.68868e-63
2.52131e-63
2.35691e-63
2.19678e-63
2.042e-63
1.89339e-63
1.75161e-63
1.61711e-63
1.49019e-63
1.37101e-63
1.25964e-63
1.15602e-63
1.06004e-63
9.71504e-64
8.90193e-64
8.15838e-64
7.48151e-64
6.86831e-64
6.31572e-64
5.8207e-64
5.3803e-64
4.9917e-64
4.65226e-64
4.35954e-64
4.11134e-64
3.90571e-64
3.74098e-64
3.61575e-64
3.52892e-64
3.47968e-64
3.46751e-64
3.49218e-64
3.55377e-64
3.65261e-64
3.78934e-64
3.96482e-64
4.18018e-64
4.43679e-64
4.73618e-64
5.08009e-64
5.4704e-64
5.90905e-64
6.39806e-64
6.93946e-64
7.53515e-64
8.18694e-64
8.89636e-64
9.66463e-64
1.04925e-63
1.13802e-63
1.23271e-63
1.33321e-63
1.43925e-63
1.5505e-63
1.66647e-63
1.78651e-63
1.90981e-63
2.0354e-63
2.16207e-63
2.28842e-63
2.41282e-63
2.53343e-63
2.64817e-63
2.75474e-63
2.85063e-63
2.93316e-63
2.9995e-63
3.0467e-63
3.07178e-63
4.88886e-63
4.84894e-63
4.77379e-63
4.66817e-63
4.53673e-63
4.38398e-63
4.21418e-63
4.03131e-63
3.83902e-63
3.64061e-63
3.43902e-63
3.23682e-63
3.03625e-63
2.8392e-63
2.64723e-63
2.46163e-63
2.2834e-63
2.1133e-63
1.9519e-63
1.79956e-63
1.65647e-63
1.5227e-63
1.39821e-63
1.28286e-63
1.17642e-63
1.07863e-63
9.89173e-64
9.07708e-64
8.33878e-64
7.6732e-64
7.07674e-64
6.54589e-64
6.07729e-64
5.6678e-64
5.31453e-64
5.01485e-64
4.76646e-64
4.56735e-64
4.41586e-64
4.31067e-64
4.25082e-64
4.23568e-64
4.26499e-64
4.3388e-64
4.45754e-64
4.62192e-64
4.833e-64
5.09209e-64
5.40081e-64
5.76099e-64
6.17467e-64
6.64407e-64
7.17151e-64
7.75938e-64
8.41003e-64
9.12577e-64
9.90868e-64
1.07606e-63
1.16829e-63
1.26765e-63
1.37416e-63
1.48776e-63
1.60827e-63
1.73542e-63
1.86878e-63
2.00776e-63
2.15159e-63
2.29932e-63
2.44974e-63
2.60144e-63
2.75273e-63
2.90168e-63
3.04606e-63
3.1834e-63
3.31094e-63
3.42569e-63
3.52445e-63
3.60382e-63
3.66029e-63
3.6903e-63
5.87006e-63
5.82228e-63
5.73235e-63
5.60594e-63
5.44861e-63
5.26577e-63
5.0625e-63
4.84356e-63
4.61333e-63
4.37574e-63
4.13432e-63
3.89215e-63
3.65189e-63
3.41581e-63
3.18579e-63
2.96335e-63
2.74971e-63
2.54579e-63
2.35224e-63
2.16952e-63
1.99786e-63
1.83735e-63
1.68793e-63
1.54943e-63
1.42161e-63
1.30414e-63
1.19664e-63
1.09872e-63
1.00995e-63
9.29904e-64
8.58144e-64
7.94256e-64
7.37842e-64
6.88528e-64
6.45969e-64
6.09854e-64
5.79905e-64
5.55886e-64
5.37598e-64
5.24884e-64
5.17628e-64
5.15756e-64
5.19234e-64
5.2807e-64
5.42313e-64
5.62049e-64
5.874e-64
6.18524e-64
6.55611e-64
6.9888e-64
7.48572e-64
8.04949e-64
8.68287e-64
9.38869e-64
1.01697e-63
1.10287e-63
1.19682e-63
1.29902e-63
1.40964e-63
1.52879e-63
1.65649e-63
1.79265e-63
1.93708e-63
2.08943e-63
2.24919e-63
2.41566e-63
2.58793e-63
2.76482e-63
2.94492e-63
3.12652e-63
3.30762e-63
3.48589e-63
3.65868e-63
3.82303e-63
3.97564e-63
4.11294e-63
4.23109e-63
4.32605e-63
4.3936e-63
4.4295e-63
7.04335e-63
6.98618e-63
6.87856e-63
6.72727e-63
6.53899e-63
6.32015e-63
6.07686e-63
5.81479e-63
5.53918e-63
5.25475e-63
4.9657e-63
4.67573e-63
4.38802e-63
4.10528e-63
3.82976e-63
3.56329e-63
3.30733e-63
3.06297e-63
2.83101e-63
2.61198e-63
2.40617e-63
2.21369e-63
2.03448e-63
1.86834e-63
1.71496e-63
1.57398e-63
1.44493e-63
1.32736e-63
1.22074e-63
1.12457e-63
1.03834e-63
9.61547e-64
8.9372e-64
8.34413e-64
7.83215e-64
7.39754e-64
7.03701e-64
6.74772e-64
6.52732e-64
6.37392e-64
6.28614e-64
6.26308e-64
6.30436e-64
6.41005e-64
6.58071e-64
6.81738e-64
7.12151e-64
7.49497e-64
7.94001e-64
8.45922e-64
9.05548e-64
9.73189e-64
1.04917e-63
1.13384e-63
1.22751e-63
1.33052e-63
1.44315e-63
1.56566e-63
1.69825e-63
1.84103e-63
1.99403e-63
2.15715e-63
2.33015e-63
2.51261e-63
2.70392e-63
2.90324e-63
3.10947e-63
3.32122e-63
3.53678e-63
3.75413e-63
3.97085e-63
4.18417e-63
4.39092e-63
4.58755e-63
4.77013e-63
4.93438e-63
5.07572e-63
5.1893e-63
5.27011e-63
5.31304e-63
8.44648e-63
8.37807e-63
8.2493e-63
8.06827e-63
7.84296e-63
7.58107e-63
7.2899e-63
6.97625e-63
6.64637e-63
6.30592e-63
5.95991e-63
5.61277e-63
5.26832e-63
4.92978e-63
4.59986e-63
4.28075e-63
3.97418e-63
3.68148e-63
3.40359e-63
3.14116e-63
2.89454e-63
2.66386e-63
2.44903e-63
2.24984e-63
2.06593e-63
1.89684e-63
1.74205e-63
1.60098e-63
1.47304e-63
1.3576e-63
1.25408e-63
1.16187e-63
1.0804e-63
1.00915e-63
9.47631e-64
8.95392e-64
8.52043e-64
8.17246e-64
7.90719e-64
7.72238e-64
7.61637e-64
7.58809e-64
7.63707e-64
7.7634e-64
7.96774e-64
8.25131e-64
8.61585e-64
9.06356e-64
9.59713e-64
1.02196e-63
1.09345e-63
1.17454e-63
1.26563e-63
1.36711e-63
1.47937e-63
1.60281e-63
1.73776e-63
1.88454e-63
2.04336e-63
2.21438e-63
2.39761e-63
2.59294e-63
2.80008e-63
3.01852e-63
3.24753e-63
3.4861e-63
3.73292e-63
3.98633e-63
4.24429e-63
4.50436e-63
4.76366e-63
5.01888e-63
5.26622e-63
5.50144e-63
5.71985e-63
5.91632e-63
6.08538e-63
6.22124e-63
6.31789e-63
6.36924e-63
1.01246e-62
1.00428e-62
9.8887e-63
9.67208e-63
9.40248e-63
9.08909e-63
8.74066e-63
8.36532e-63
7.97053e-63
7.56307e-63
7.14894e-63
6.73344e-63
6.32112e-63
5.91586e-63
5.52088e-63
5.13882e-63
4.77174e-63
4.42123e-63
4.08843e-63
3.77411e-63
3.47869e-63
3.20232e-63
2.94493e-63
2.70623e-63
2.48581e-63
2.28313e-63
2.09755e-63
1.92841e-63
1.77497e-63
1.63652e-63
1.51232e-63
1.40168e-63
1.30392e-63
1.2184e-63
1.14453e-63
1.0818e-63
1.02973e-63
9.87917e-64
9.56025e-64
9.33786e-64
9.21002e-64
9.17545e-64
9.23358e-64
9.3845e-64
9.62903e-64
9.96858e-64
1.04052e-63
1.09416e-63
1.15809e-63
1.23267e-63
1.31832e-63
1.41548e-63
1.5246e-63
1.64617e-63
1.78065e-63
1.92849e-63
2.09012e-63
2.26588e-63
2.45605e-63
2.66081e-63
2.88017e-63
3.11399e-63
3.36192e-63
3.62336e-63
3.89743e-63
4.18292e-63
4.47827e-63
4.78147e-63
5.0901e-63
5.40124e-63
5.71144e-63
6.01675e-63
6.31262e-63
6.59398e-63
6.85522e-63
7.09022e-63
7.29242e-63
7.45491e-63
7.5705e-63
7.63191e-63
1.21318e-62
1.20339e-62
1.18495e-62
1.15904e-62
1.12678e-62
1.08928e-62
1.04759e-62
1.00267e-62
9.55429e-63
9.06668e-63
8.57107e-63
8.0738e-63
7.58031e-63
7.09525e-63
6.62247e-63
6.16511e-63
5.72567e-63
5.30603e-63
4.90756e-63
4.53118e-63
4.17741e-63
3.84642e-63
3.53813e-63
3.2522e-63
2.98813e-63
2.74528e-63
2.5229e-63
2.32019e-63
2.13628e-63
1.9703e-63
1.8214e-63
1.68873e-63
1.57148e-63
1.46889e-63
1.38028e-63
1.305e-63
1.2425e-63
1.1923e-63
1.15399e-63
1.12725e-63
1.11186e-63
1.10764e-63
1.11454e-63
1.13257e-63
1.16182e-63
1.20245e-63
1.25473e-63
1.31895e-63
1.39551e-63
1.48483e-63
1.5874e-63
1.70375e-63
1.83442e-63
1.97998e-63
2.141e-63
2.31801e-63
2.5115e-63
2.72191e-63
2.94955e-63
3.19462e-63
3.45716e-63
3.73698e-63
4.03367e-63
4.34651e-63
4.67444e-63
5.01603e-63
5.36937e-63
5.7321e-63
6.10131e-63
6.4735e-63
6.84457e-63
7.20975e-63
7.56364e-63
7.90017e-63
8.21262e-63
8.49368e-63
8.73551e-63
8.92984e-63
9.06807e-63
9.14152e-63
1.45327e-62
1.44155e-62
1.4195e-62
1.38849e-62
1.34989e-62
1.30502e-62
1.25513e-62
1.20139e-62
1.14486e-62
1.08652e-62
1.02721e-62
9.677e-63
9.08643e-63
8.50592e-63
7.94008e-63
7.39267e-63
6.86668e-63
6.36436e-63
5.88736e-63
5.43677e-63
5.01321e-63
4.6169e-63
4.24773e-63
3.90532e-63
3.58906e-63
3.29819e-63
3.03181e-63
2.78895e-63
2.5686e-63
2.36972e-63
2.19127e-63
2.03226e-63
1.89171e-63
1.76872e-63
1.66247e-63
1.57219e-63
1.49722e-63
1.43699e-63
1.391e-63
1.35889e-63
1.34036e-63
1.33523e-63
1.34343e-63
1.36495e-63
1.39992e-63
1.44854e-63
1.5111e-63
1.58797e-63
1.67961e-63
1.78654e-63
1.90932e-63
2.0486e-63
2.20503e-63
2.37927e-63
2.572e-63
2.78386e-63
3.01545e-63
3.26725e-63
3.53968e-63
3.83294e-63
4.14709e-63
4.4819e-63
4.83688e-63
5.21116e-63
5.60348e-63
6.01211e-63
6.4348e-63
6.8687e-63
7.31033e-63
7.75551e-63
8.19933e-63
8.63611e-63
9.05938e-63
9.46186e-63
9.83554e-63
1.01717e-62
1.04609e-62
1.06933e-62
1.08586e-62
1.09464e-62
1.74045e-62
1.72644e-62
1.70005e-62
1.66295e-62
1.61677e-62
1.56309e-62
1.5034e-62
1.4391e-62
1.37146e-62
1.30164e-62
1.23068e-62
1.15947e-62
1.0888e-62
1.01933e-62
9.51614e-63
8.86103e-63
8.23151e-63
7.6303e-63
7.05937e-63
6.52002e-63
6.013e-63
5.53857e-63
5.0966e-63
4.68664e-63
4.30796e-63
3.95965e-63
3.64065e-63
3.34979e-63
3.08587e-63
2.84764e-63
2.63387e-63
2.44335e-63
2.27494e-63
2.12756e-63
2.00021e-63
1.89199e-63
1.80211e-63
1.72987e-63
1.67471e-63
1.63616e-63
1.61388e-63
1.60766e-63
1.61739e-63
1.64309e-63
1.6849e-63
1.74305e-63
1.81789e-63
1.90987e-63
2.01953e-63
2.14749e-63
2.29444e-63
2.46112e-63
2.64832e-63
2.85684e-63
3.08748e-63
3.341e-63
3.61811e-63
3.9194e-63
4.24535e-63
4.59623e-63
4.97207e-63
5.37262e-63
5.79727e-63
6.245e-63
6.7143e-63
7.20309e-63
7.70868e-63
8.22767e-63
8.75589e-63
9.28834e-63
9.81916e-63
1.03415e-62
1.08478e-62
1.13291e-62
1.1776e-62
1.2178e-62
1.25238e-62
1.28018e-62
1.29995e-62
1.31045e-62
2.08399e-62
2.06722e-62
2.03565e-62
1.99126e-62
1.93601e-62
1.87178e-62
1.80037e-62
1.72344e-62
1.64251e-62
1.55897e-62
1.47406e-62
1.38886e-62
1.3043e-62
1.22117e-62
1.14014e-62
1.06175e-62
9.86411e-63
9.14462e-63
8.46133e-63
7.81582e-63
7.20897e-63
6.64111e-63
6.11207e-63
5.62131e-63
5.16798e-63
4.75098e-63
4.36904e-63
4.02079e-63
3.70475e-63
3.41946e-63
3.16343e-63
2.93524e-63
2.73351e-63
2.55696e-63
2.40438e-63
2.27471e-63
2.16699e-63
2.0804e-63
2.01425e-63
1.96799e-63
1.94123e-63
1.93368e-63
1.94525e-63
1.97594e-63
2.0259e-63
2.09544e-63
2.18496e-63
2.295e-63
2.4262e-63
2.5793e-63
2.75512e-63
2.95455e-63
3.17853e-63
3.42802e-63
3.70396e-63
4.00728e-63
4.33881e-63
4.69927e-63
5.0892e-63
5.50894e-63
5.95854e-63
6.43768e-63
6.94564e-63
7.48119e-63
8.04251e-63
8.62715e-63
9.23185e-63
9.85257e-63
1.04843e-62
1.11211e-62
1.1756e-62
1.23807e-62
1.29861e-62
1.35617e-62
1.40962e-62
1.45769e-62
1.49905e-62
1.53228e-62
1.55593e-62
1.56849e-62
2.49494e-62
2.47488e-62
2.4371e-62
2.384e-62
2.3179e-62
2.24106e-62
2.15562e-62
2.06357e-62
1.96675e-62
1.8668e-62
1.76521e-62
1.66326e-62
1.56208e-62
1.46262e-62
1.36566e-62
1.27185e-62
1.18171e-62
1.09561e-62
1.01384e-62
9.3659e-63
8.63965e-63
7.96002e-63
7.32684e-63
6.73945e-63
6.19683e-63
5.69767e-63
5.24046e-63
4.82354e-63
4.44517e-63
4.1036e-63
3.79704e-63
3.52379e-63
3.28221e-63
3.07076e-63
2.88801e-63
2.73268e-63
2.60362e-63
2.49986e-63
2.42057e-63
2.36509e-63
2.33294e-63
2.32382e-63
2.33756e-63
2.3742e-63
2.43392e-63
2.51706e-63
2.62412e-63
2.75573e-63
2.91267e-63
3.09581e-63
3.30614e-63
3.54472e-63
3.81267e-63
4.11113e-63
4.44124e-63
4.80408e-63
5.20067e-63
5.63185e-63
6.09829e-63
6.60036e-63
7.13813e-63
7.71123e-63
8.31879e-63
8.95933e-63
9.63069e-63
1.03299e-62
1.10531e-62
1.17955e-62
1.2551e-62
1.33126e-62
1.40718e-62
1.48189e-62
1.55429e-62
1.62313e-62
1.68704e-62
1.74453e-62
1.79399e-62
1.83373e-62
1.862e-62
1.87702e-62
2.98654e-62
2.96254e-62
2.91735e-62
2.85381e-62
2.77473e-62
2.6828e-62
2.58058e-62
2.47046e-62
2.35461e-62
2.23504e-62
2.11349e-62
1.99151e-62
1.87045e-62
1.75145e-62
1.63544e-62
1.52319e-62
1.41533e-62
1.3123e-62
1.21446e-62
1.12202e-62
1.03511e-62
9.53779e-63
8.78004e-63
8.07706e-63
7.42763e-63
6.8302e-63
6.28295e-63
5.78391e-63
5.331e-63
4.92209e-63
4.5551e-63
4.22796e-63
3.93871e-63
3.68552e-63
3.46668e-63
3.28065e-63
3.12607e-63
3.00176e-63
2.90674e-63
2.84023e-63
2.80164e-63
2.79061e-63
2.80695e-63
2.85069e-63
2.92205e-63
3.02145e-63
3.14947e-63
3.30687e-63
3.49457e-63
3.71363e-63
3.96521e-63
4.25059e-63
4.5711e-63
4.9281e-63
5.32295e-63
5.75697e-63
6.23133e-63
6.74706e-63
7.30495e-63
7.90547e-63
8.54867e-63
9.2341e-63
9.96074e-63
1.07268e-62
1.15297e-62
1.2366e-62
1.32309e-62
1.41187e-62
1.50222e-62
1.5933e-62
1.68409e-62
1.77343e-62
1.86001e-62
1.94233e-62
2.01876e-62
2.08751e-62
2.14665e-62
2.19418e-62
2.22799e-62
2.24595e-62
3.57462e-62
3.54591e-62
3.49185e-62
3.41584e-62
3.32123e-62
3.21125e-62
3.08895e-62
2.9572e-62
2.81861e-62
2.67554e-62
2.53012e-62
2.38418e-62
2.23935e-62
2.09696e-62
1.95816e-62
1.82386e-62
1.6948e-62
1.57153e-62
1.45445e-62
1.34384e-62
1.23985e-62
1.14252e-62
1.05185e-62
9.67722e-63
8.90004e-63
8.18505e-63
7.53011e-63
6.93283e-63
6.39075e-63
5.90131e-63
5.46202e-63
5.07042e-63
4.72416e-63
4.42103e-63
4.15902e-63
3.93626e-63
3.75115e-63
3.60226e-63
3.48842e-63
3.4087e-63
3.3624e-63
3.34907e-63
3.3685e-63
3.42073e-63
3.506e-63
3.62482e-63
3.77789e-63
3.96612e-63
4.19059e-63
4.45258e-63
4.75347e-63
5.09479e-63
5.47813e-63
5.90512e-63
6.37739e-63
6.89648e-63
7.46383e-63
8.08066e-63
8.7479e-63
9.46611e-63
1.02354e-62
1.10551e-62
1.19241e-62
1.28403e-62
1.38005e-62
1.48006e-62
1.58349e-62
1.68966e-62
1.79771e-62
1.90663e-62
2.0152e-62
2.12204e-62
2.22557e-62
2.32402e-62
2.41541e-62
2.49762e-62
2.56835e-62
2.62518e-62
2.6656e-62
2.68708e-62
4.27814e-62
4.24379e-62
4.17911e-62
4.08818e-62
3.97499e-62
3.84341e-62
3.6971e-62
3.53948e-62
3.37367e-62
3.20251e-62
3.02852e-62
2.85393e-62
2.68064e-62
2.51029e-62
2.34422e-62
2.18354e-62
2.02912e-62
1.88163e-62
1.74155e-62
1.6092e-62
1.48477e-62
1.36832e-62
1.25981e-62
1.15915e-62
1.06615e-62
9.80588e-63
9.0221e-63
8.30732e-63
7.65856e-63
7.0728e-63
6.54702e-63
6.0783e-63
5.66384e-63
5.30099e-63
4.98732e-63
4.72064e-63
4.49899e-63
4.32069e-63
4.18434e-63
4.0888e-63
4.03326e-63
4.01718e-63
4.04029e-63
4.10264e-63
4.20454e-63
4.34657e-63
4.52958e-63
4.75465e-63
5.02308e-63
5.33638e-63
5.69623e-63
6.10443e-63
6.56288e-63
7.07355e-63
7.63836e-63
8.25918e-63
8.93771e-63
9.6754e-63
1.04734e-62
1.13323e-62
1.22523e-62
1.32326e-62
1.42719e-62
1.53675e-62
1.65158e-62
1.77118e-62
1.89487e-62
2.02183e-62
2.15105e-62
2.28129e-62
2.41112e-62
2.53889e-62
2.66269e-62
2.78041e-62
2.8897e-62
2.98801e-62
3.07258e-62
3.14054e-62
3.18888e-62
3.21456e-62
5.11975e-62
5.07865e-62
5.00127e-62
4.89249e-62
4.75707e-62
4.59966e-62
4.42462e-62
4.23605e-62
4.03768e-62
3.83291e-62
3.62475e-62
3.41587e-62
3.20855e-62
3.00474e-62
2.80606e-62
2.61382e-62
2.42907e-62
2.2526e-62
2.085e-62
1.92665e-62
1.77776e-62
1.63843e-62
1.5086e-62
1.38815e-62
1.27687e-62
1.17449e-62
1.0807e-62
9.95163e-63
9.17526e-63
8.47427e-63
7.84504e-63
7.28407e-63
6.78802e-63
6.35371e-63
5.97826e-63
5.65902e-63
5.39366e-63
5.18018e-63
5.01687e-63
4.90241e-63
4.83581e-63
4.8164e-63
4.8439e-63
4.91834e-63
5.0401e-63
5.20988e-63
5.42867e-63
5.69777e-63
6.01875e-63
6.3934e-63
6.82372e-63
7.31188e-63
7.86015e-63
8.47086e-63
9.14632e-63
9.88876e-63
1.07002e-62
1.15824e-62
1.25367e-62
1.35639e-62
1.46641e-62
1.58364e-62
1.70792e-62
1.83895e-62
1.97627e-62
2.11928e-62
2.2672e-62
2.41903e-62