/*--------------------------------*- C++ -*----------------------------------*\
  =========                 |
  \\      /  F ield         | OpenFOAM: The Open Source CFD Toolbox
   \\    /   O peration     | Website:  https://openfoam.org
    \\  /    A nd           | Version:  11
     \\/     M anipulation  |
\*---------------------------------------------------------------------------*/
FoamFile
{
    format      ascii;
    class       volScalarField;
    location    "100";
    object      C;
}
// * * * * * * * * * * * * * * * * * * * * * * * * * * * * * * * * * * * * * //

dimensions      [0 0 0 1 0 0 0];

internalField   nonuniform List<scalar> 
440320
(
4.34754e-232
4.19128e-232
3.78125e-232
3.24592e-232
2.68564e-232
2.16208e-232
1.70534e-232
1.32429e-232
1.0158e-232
7.71254e-233
5.80393e-233
4.33248e-233
3.20965e-233
2.36057e-233
1.7238e-233
1.24998e-233
9.00066e-234
6.43556e-234
4.56884e-234
3.22021e-234
2.25299e-234
1.56443e-234
1.07791e-234
7.36797e-235
4.995e-235
3.35758e-235
2.23712e-235
1.47701e-235
9.65951e-236
6.25524e-236
4.00938e-236
2.54256e-236
1.59453e-236
9.8845e-237
6.05369e-237
3.66097e-237
2.18489e-237
1.28599e-237
7.45873e-238
4.2581e-238
2.38889e-238
1.32299e-238
7.24147e-239
3.92066e-239
2.10092e-239
1.11472e-239
5.8582e-240
3.05013e-240
1.57366e-240
8.04672e-241
4.07864e-241
2.04982e-241
1.02206e-241
5.06421e-242
2.50582e-242
1.25617e-242
6.6372e-243
4.03766e-243
3.18063e-243
3.33144e-243
4.19307e-243
5.70544e-243
7.95194e-243
1.11214e-242
1.54991e-242
2.14744e-242
2.95577e-242
4.04034e-242
5.48354e-242
7.38698e-242
9.87248e-242
1.30797e-241
1.71565e-241
2.22346e-241
2.83795e-241
3.5503e-241
4.32332e-241
5.07607e-241
5.67049e-241
5.91608e-241
2.39859e-231
2.02609e-231
1.68258e-231
1.38107e-231
1.12026e-231
8.97925e-232
7.11229e-232
5.56903e-232
4.31311e-232
3.3061e-232
2.50974e-232
1.88785e-232
1.40777e-232
1.04108e-232
7.63734e-233
5.55883e-233
4.01475e-233
2.8773e-233
2.04626e-233
1.44397e-233
1.01095e-233
7.02116e-234
4.8364e-234
3.30349e-234
2.23695e-234
1.50124e-234
9.98209e-235
6.57398e-235
4.2866e-235
2.76634e-235
1.76616e-235
1.11503e-235
6.95789e-236
4.28922e-236
2.61071e-236
1.56807e-236
9.28821e-237
5.42181e-237
3.11604e-237
1.76073e-237
9.7548e-238
5.34265e-238
2.89461e-238
1.55215e-238
8.24052e-239
4.33293e-239
2.25693e-239
1.16478e-239
5.95708e-240
3.01955e-240
1.5172e-240
7.55901e-241
3.73695e-241
1.837e-241
9.0359e-242
4.53071e-242
2.43412e-242
1.55319e-242
1.3151e-242
1.46083e-242
1.8932e-242
2.60337e-242
3.63741e-242
5.08309e-242
7.06731e-242
9.75908e-242
1.33755e-241
1.81887e-241
2.45332e-241
3.281e-241
4.34878e-241
5.70964e-241
7.42121e-241
9.5435e-241
1.21363e-240
1.52573e-240
1.89598e-240
2.32878e-240
2.82517e-240
3.35541e-240
9.20178e-231
7.57744e-231
5.99212e-231
4.70849e-231
3.69434e-231
2.89246e-231
2.25631e-231
1.75106e-231
1.35051e-231
1.03432e-231
7.86259e-232
5.93065e-232
4.43814e-232
3.29481e-232
2.42649e-232
1.7727e-232
1.28469e-232
9.23517e-233
6.58492e-233
4.65666e-233
3.26561e-233
2.27065e-233
1.56513e-233
1.06923e-233
7.23765e-234
4.85301e-234
3.22236e-234
2.11804e-234
1.37763e-234
8.86308e-235
5.63774e-235
3.54393e-235
2.20042e-235
1.34875e-235
8.15657e-236
4.86368e-236
2.85763e-236
1.65305e-236
9.40491e-237
5.25371e-237
2.87045e-237
1.55218e-237
8.30946e-238
4.40513e-238
2.31308e-238
1.20324e-238
6.20161e-239
3.16745e-239
1.60331e-239
8.04423e-240
4.00111e-240
1.97358e-240
9.66278e-241
4.70868e-241
2.30257e-241
1.15747e-241
6.3676e-242
4.30685e-242
3.93112e-242
4.60113e-242
6.10091e-242
8.44824e-242
1.18102e-241
1.64718e-241
2.28326e-241
3.14177e-241
4.28982e-241
5.81175e-241
7.81241e-241
1.0421e-240
1.3796e-240
1.81328e-240
2.36739e-240
3.07269e-240
3.96926e-240
5.11059e-240
6.56798e-240
8.42727e-240
1.07289e-239
1.30537e-239
2.87153e-230
2.39111e-230
1.86797e-230
1.43203e-230
1.0935e-230
8.34924e-231
6.37534e-231
4.86354e-231
3.70208e-231
2.80843e-231
2.12106e-231
1.59349e-231
1.19002e-231
8.82942e-232
6.50573e-232
4.75875e-232
3.45459e-232
2.48826e-232
1.77781e-232
1.2597e-232
8.85e-233
6.16322e-233
4.25352e-233
2.90837e-233
1.9696e-233
1.32068e-233
8.76497e-234
5.75541e-234
3.73763e-234
2.39948e-234
1.52206e-234
9.535e-235
5.8958e-235
3.59618e-235
2.16244e-235
1.28101e-235
7.47035e-236
4.28481e-236
2.41448e-236
1.33397e-236
7.19143e-237
3.83986e-237
2.03097e-237
1.06422e-237
5.52517e-238
2.84245e-238
1.44916e-238
7.3225e-239
3.66747e-239
1.82093e-239
8.96437e-240
4.37759e-240
2.12297e-240
1.02603e-240
4.99431e-241
2.52486e-241
1.43075e-241
1.02978e-241
1.00611e-241
1.22677e-241
1.65307e-241
2.29918e-241
3.21446e-241
4.47771e-241
6.19792e-241
8.51896e-241
1.16274e-240
1.57637e-240
2.12373e-240
2.84479e-240
3.7916e-240
5.03275e-240
6.65986e-240
8.79704e-240
1.16136e-239
1.53376e-239
2.02546e-239
2.66266e-239
3.42814e-239
4.12098e-239
7.92036e-230
6.70551e-230
5.26693e-230
4.00696e-230
3.01283e-230
2.25772e-230
1.69112e-230
1.26686e-230
9.48714e-231
7.09632e-231
5.29672e-231
3.94139e-231
2.92136e-231
2.15515e-231
1.58134e-231
1.15336e-231
8.35731e-232
6.01337e-232
4.29468e-232
3.0432e-232
2.13869e-232
1.49012e-232
1.02894e-232
7.03874e-233
4.7683e-233
3.19761e-233
2.12177e-233
1.39249e-233
9.0345e-234
5.79185e-234
3.66693e-234
2.29148e-234
1.41253e-234
8.58348e-235
5.13826e-235
3.02783e-235
1.7549e-235
9.9947e-236
5.5864e-236
3.05753e-236
1.62952e-236
8.60516e-237
4.50287e-237
2.33491e-237
1.19986e-237
6.11082e-238
3.08472e-238
1.54355e-238
7.65705e-239
3.76618e-239
1.83716e-239
8.89268e-240
4.27752e-240
2.05359e-240
9.97007e-241
5.08239e-241
2.97295e-241
2.26696e-241
2.33972e-241
2.93942e-241
4.00756e-241
5.59706e-241
7.83936e-241
1.09368e-240
1.51698e-240
2.09143e-240
2.86696e-240
3.90985e-240
5.30838e-240
7.18085e-240
9.68709e-240
1.30447e-239
1.7552e-239
2.36172e-239
3.17913e-239
4.27806e-239
5.73601e-239
7.59384e-239
9.71616e-239
1.14809e-238
2.00629e-229
1.72482e-229
1.37064e-229
1.04523e-229
7.81364e-230
5.78974e-230
4.27511e-230
3.15294e-230
2.32423e-230
1.7124e-230
1.26032e-230
9.26016e-231
6.78722e-231
4.95875e-231
3.6086e-231
2.61389e-231
1.88334e-231
1.34896e-231
9.59924e-232
6.7828e-232
4.75647e-232
3.3086e-232
2.28178e-232
1.5594e-232
1.05557e-232
7.0737e-233
4.69045e-233
3.07584e-233
1.9937e-233
1.2766e-233
8.07036e-234
5.03384e-234
3.09589e-234
1.87605e-234
1.1193e-234
6.56967e-235
3.79009e-235
2.14694e-235
1.19252e-235
6.47948e-236
3.42273e-236
1.79178e-236
9.29577e-237
4.77959e-237
2.43571e-237
1.23033e-237
6.16063e-238
3.05832e-238
1.50542e-238
7.34907e-239
3.55914e-239
1.71113e-239
8.18119e-240
3.91016e-240
1.89749e-240
9.76831e-241
5.88939e-241
4.71481e-241
5.07364e-241
6.5168e-241
8.97411e-241
1.26028e-240
1.77324e-240
2.48614e-240
3.46868e-240
4.81613e-240
6.65798e-240
9.17037e-240
1.25938e-239
1.72582e-239
2.36175e-239
3.22978e-239
4.4159e-239
6.03649e-239
8.24328e-239
1.12167e-238
1.51209e-238
1.99589e-238
2.52257e-238
2.93419e-238
4.77385e-229
4.15698e-229
3.34572e-229
2.56947e-229
1.92148e-229
1.41626e-229
1.03601e-229
7.54944e-230
5.49044e-230
3.98822e-230
2.89396e-230
2.09725e-230
1.51727e-230
1.09519e-230
7.88234e-231
5.65305e-231
4.03725e-231
2.86933e-231
2.02811e-231
1.42476e-231
9.94185e-232
6.88662e-232
4.73262e-232
3.22475e-232
2.17738e-232
1.45601e-232
9.63653e-233
6.30873e-233
4.08277e-233
2.61024e-233
1.6475e-233
1.02586e-233
6.2972e-234
3.80776e-234
2.2662e-234
1.32634e-234
7.62648e-235
4.30368e-235
2.38001e-235
1.28659e-235
6.75472e-236
3.5144e-236
1.81213e-236
9.26074e-237
4.69092e-237
2.35544e-237
1.17258e-237
5.78819e-238
2.83369e-238
1.3762e-238
6.63293e-239
3.17517e-239
1.51271e-239
7.21513e-240
3.50662e-240
1.82374e-240
1.12879e-240
9.38996e-241
1.0425e-240
1.36262e-240
1.89512e-240
2.68156e-240
3.801e-240
5.37231e-240
7.56368e-240
1.06091e-239
1.48325e-239
2.06831e-239
2.87842e-239
4.00019e-239
5.55378e-239
7.70504e-239
1.06797e-238
1.47764e-238
2.03666e-238
2.78531e-238
3.75191e-238
4.91503e-238
6.13044e-238
7.03809e-238
1.08276e-228
9.52683e-229
7.75915e-229
6.01073e-229
4.51151e-229
3.32109e-229
2.41625e-229
1.74563e-229
1.2558e-229
9.0099e-230
6.45195e-230
4.61267e-230
3.29218e-230
2.34515e-230
1.66664e-230
1.18108e-230
8.34162e-231
5.86808e-231
4.10914e-231
2.86249e-231
1.98242e-231
1.36405e-231
9.31893e-232
6.31711e-232
4.24623e-232
2.82834e-232
1.86556e-232
1.2177e-232
7.85996e-233
5.0134e-233
3.15759e-233
1.96225e-233
1.20221e-233
7.25556e-234
4.30967e-234
2.51706e-234
1.44407e-234
8.12885e-235
4.48308e-235
2.41602e-235
1.26393e-235
6.55218e-236
3.36608e-236
1.71388e-236
8.6498e-237
4.32785e-237
2.14711e-237
1.05644e-237
5.15647e-238
2.49758e-238
1.20103e-238
5.7393e-239
2.73163e-239
1.30335e-239
6.35483e-240
3.33765e-240
2.11012e-240
1.80669e-240
2.05348e-240
2.72423e-240
3.82918e-240
5.47008e-240
7.82993e-240
1.11837e-239
1.59252e-239
2.26103e-239
3.2021e-239
4.52553e-239
6.38538e-239
8.9971e-239
1.26601e-238
1.7785e-238
2.49227e-238
3.47801e-238
4.81916e-238
6.59706e-238
8.85032e-238
1.14892e-237
1.4156e-237
1.60807e-237
2.36469e-228
2.09813e-228
1.72671e-228
1.34933e-228
1.01805e-228
7.50295e-229
5.44435e-229
3.91024e-229
2.78932e-229
1.98051e-229
1.40159e-229
9.89361e-230
6.96842e-230
4.89766e-230
3.43448e-230
2.40234e-230
1.6755e-230
1.16464e-230
8.06404e-231
5.55883e-231
3.81262e-231
2.60018e-231
1.76213e-231
1.18588e-231
7.91968e-232
5.24487e-232
3.44197e-232
2.23667e-232
1.4381e-232
9.14169e-233
5.74072e-233
3.55833e-233
2.17516e-233
1.31013e-233
7.76797e-234
4.52947e-234
2.59465e-234
1.45845e-234
8.03211e-235
4.32276e-235
2.25851e-235
1.16918e-235
5.99783e-236
3.04946e-236
1.5369e-236
7.67983e-237
3.80577e-237
1.87085e-237
9.12591e-238
4.41904e-238
2.12539e-238
1.01638e-238
4.8445e-239
2.3174e-239
1.1352e-239
6.0166e-240
3.86648e-240
3.38074e-240
3.91244e-240
5.26081e-240
7.47977e-240
1.08052e-239
1.56473e-239
2.26237e-239
3.26296e-239
4.69447e-239
6.73906e-239
9.65502e-239
1.38071e-238
1.97069e-238
2.80631e-238
3.9839e-238
5.63018e-238
7.90261e-238
1.09768e-237
1.50046e-237
2.00183e-237
2.57525e-237
3.13923e-237
3.53573e-237
5.00965e-228
4.47523e-228
3.7159e-228
2.92738e-228
2.22116e-228
1.641e-228
1.18977e-228
8.51233e-229
6.03301e-229
4.24689e-229
2.97463e-229
2.07553e-229
1.44368e-229
1.00146e-229
6.92916e-230
4.78187e-230
3.29087e-230
2.25785e-230
1.54379e-230
1.05146e-230
7.13009e-231
4.81112e-231
3.22839e-231
2.15295e-231
1.42592e-231
9.37259e-232
6.10953e-232
3.94643e-232
2.52409e-232
1.59717e-232
9.99018e-233
6.17148e-233
3.76188e-233
2.26054e-233
1.33778e-233
7.78905e-234
4.45698e-234
2.50342e-234
1.37818e-234
7.41713e-235
3.87744e-235
2.00828e-235
1.03074e-235
5.24332e-236
2.6442e-236
1.32229e-236
6.5589e-237
3.22812e-237
1.57706e-237
7.65126e-238
3.68874e-238
1.76918e-238
8.46324e-239
4.06674e-239
2.0039e-239
1.07102e-239
6.96786e-240
6.18487e-240
7.26074e-240
9.88841e-240
1.42323e-239
2.08168e-239
3.05345e-239
4.47369e-239
6.5402e-239
9.53897e-239
1.38809e-238
2.01528e-238
2.91868e-238
4.21494e-238
6.06488e-238
8.68454e-238
1.23523e-237
1.74026e-237
2.41873e-237
3.29727e-237
4.37297e-237
5.57863e-237
6.73859e-237
7.53743e-237
1.0353e-227
9.29981e-228
7.78005e-228
6.17353e-228
4.71006e-228
3.49038e-228
2.53133e-228
1.80665e-228
1.27416e-228
8.90587e-229
6.18246e-229
4.26903e-229
2.93517e-229
2.01083e-229
1.3732e-229
9.34982e-230
6.34744e-230
4.29615e-230
2.89838e-230
1.94848e-230
1.30477e-230
8.69895e-231
5.77129e-231
3.80802e-231
2.49731e-231
1.62666e-231
1.05162e-231
6.74258e-232
4.28403e-232
2.69509e-232
1.67729e-232
1.03173e-232
6.26667e-233
3.75493e-233
2.2173e-233
1.28899e-233
7.36891e-234
4.13771e-234
2.2786e-234
1.22755e-234
6.43016e-235
3.33715e-235
1.71632e-235
8.74968e-236
4.4226e-236
2.21712e-236
1.10274e-236
5.44382e-237
2.66851e-237
1.29956e-237
6.29213e-238
3.03241e-238
1.45854e-238
7.05179e-239
3.49905e-239
1.8851e-239
1.23795e-239
1.1109e-239
1.31976e-239
1.81982e-239
2.65309e-239
3.93226e-239
5.84668e-239
8.68478e-239
1.28728e-238
1.90326e-238
2.8065e-238
4.12631e-238
6.04643e-238
8.82399e-238
1.28111e-237
1.8475e-237
2.64052e-237
3.72863e-237
5.17981e-237
7.03815e-237
9.28062e-237
1.17514e-236
1.4086e-236
1.56676e-236
2.09634e-227
1.8916e-227
1.59248e-227
1.27162e-227
9.75133e-228
7.24913e-228
5.26197e-228
3.75e-228
2.63478e-228
1.83086e-228
1.26122e-228
8.62819e-229
5.8696e-229
3.97437e-229
2.6803e-229
1.80113e-229
1.20631e-229
8.0532e-230
5.35871e-230
3.55362e-230
2.34799e-230
1.54523e-230
1.01248e-230
6.6018e-231
4.2814e-231
2.75987e-231
1.76717e-231
1.12316e-231
7.08016e-232
4.42302e-232
2.73587e-232
1.67408e-232
1.0124e-232
6.04498e-233
3.56011e-233
2.06586e-233
1.17985e-233
6.62404e-234
3.65045e-234
1.96995e-234
1.03504e-234
5.38857e-235
2.78045e-235
1.42234e-235
7.21552e-236
3.63131e-236
1.81367e-236
8.99375e-237
4.43021e-237
2.16901e-237
1.05629e-237
5.1231e-238
2.48124e-238
1.20865e-238
6.04466e-239
3.28236e-239
2.17214e-239
1.96576e-239
2.36005e-239
3.29457e-239
4.86717e-239
7.31344e-239
1.10262e-238
1.66075e-238
2.4955e-238
3.73894e-238
5.58355e-238
8.30677e-238
1.23031e-237
1.81233e-237
2.65161e-237
3.84617e-237
5.51725e-237
7.80119e-237
1.08257e-236
1.46598e-236
1.92282e-236
2.41897e-236
2.88092e-236
3.18972e-236
4.1737e-227
3.78004e-227
3.1991e-227
2.56839e-227
1.97856e-227
1.47537e-227
1.0722e-227
7.63463e-228
5.34858e-228
3.69859e-228
2.53093e-228
1.71719e-228
1.15694e-228
7.74914e-229
5.1645e-229
3.42696e-229
2.2651e-229
1.49171e-229
9.7896e-230
6.40228e-230
4.17211e-230
2.70861e-230
1.75142e-230
1.12752e-230
7.22363e-231
4.60324e-231
2.916e-231
1.83502e-231
1.14633e-231
7.10326e-232
4.36231e-232
2.65278e-232
1.59591e-232
9.48882e-233
5.57026e-233
3.2251e-233
1.83966e-233
1.03264e-233
5.6958e-234
3.08007e-234
1.62428e-234
8.48927e-235
4.39848e-235
2.25988e-235
1.15177e-235
5.82515e-236
2.92477e-236
1.45856e-236
7.22826e-237
3.562e-237
1.74683e-237
8.53617e-238
4.16769e-238
2.04749e-238
1.0329e-238
5.65485e-239
3.76881e-239
3.43628e-239
4.1672e-239
5.88974e-239
8.81936e-239
1.34374e-238
2.05432e-238
3.13694e-238
4.77687e-238
7.24869e-238
1.09547e-237
1.64766e-237
2.46415e-237
3.66001e-237
5.39056e-237
7.85661e-237
1.13017e-236
1.59916e-236
2.21613e-236
2.99128e-236
3.90485e-236
4.88512e-236
5.78675e-236
6.383e-236
8.19392e-227
7.44369e-227
6.32741e-227
5.10343e-227
3.94719e-227
2.95166e-227
2.14782e-227
1.52864e-227
1.06847e-227
7.3586e-228
5.0065e-228
3.37201e-228
2.25207e-228
1.49344e-228
9.8437e-229
6.45422e-229
4.21223e-229
2.73751e-229
1.77218e-229
1.143e-229
7.3451e-230
4.70269e-230
2.99938e-230
1.90526e-230
1.20497e-230
7.58432e-231
4.74863e-231
2.95586e-231
1.82804e-231
1.12243e-231
6.83704e-232
4.12806e-232
2.46833e-232
1.46026e-232
8.5388e-233
4.93012e-233
2.80769e-233
1.57532e-233
8.69597e-234
4.71262e-234
2.49512e-234
1.30971e-234
6.81746e-235
3.52019e-235
1.80366e-235
9.17404e-236
4.6342e-236
2.32601e-236
1.16069e-236
5.76194e-237
2.84795e-237
1.40336e-237
6.91265e-238
3.42758e-238
1.74536e-238
9.63898e-239
6.47253e-239
5.94745e-239
7.2875e-239
1.04307e-238
1.58331e-238
2.44603e-238
3.79112e-238
5.86675e-238
9.04863e-238
1.38972e-237
2.12373e-237
3.22643e-237
4.86773e-237
7.28317e-237
1.07884e-236
1.57866e-236
2.27583e-236
3.22128e-236
4.45768e-236
5.99892e-236
7.79855e-236
9.71011e-236
1.14507e-235
1.25916e-235
1.59e-226
1.44804e-226
1.2354e-226
1.00031e-226
7.76363e-227
5.82024e-227
4.24049e-227
3.01733e-227
2.10519e-227
1.44489e-227
9.78141e-228
6.5454e-228
4.33721e-228
2.85005e-228
1.8594e-228
1.20556e-228
7.77367e-229
4.98822e-229
3.18671e-229
2.02749e-229
1.28495e-229
8.1128e-230
5.10283e-230
3.1972e-230
1.9951e-230
1.23958e-230
7.66559e-231
4.71601e-231
2.8849e-231
1.75364e-231
1.05853e-231
6.33988e-232
3.76454e-232
2.21416e-232
1.28872e-232
7.41542e-233
4.21395e-233
2.36231e-233
1.30469e-233
7.08476e-234
3.76597e-234
1.98554e-234
1.03857e-234
5.391e-235
2.77799e-235
1.42164e-235
7.22845e-236
3.65354e-236
1.83673e-236
9.19029e-237
4.58074e-237
2.27735e-237
1.13232e-237
5.66956e-238
2.91568e-238
1.62556e-238
1.10111e-238
1.02111e-238
1.26542e-238
1.83494e-238
2.82356e-238
4.42189e-238
6.94531e-238
1.08862e-237
1.6995e-237
2.63974e-237
4.07565e-237
6.24872e-237
9.50195e-237
1.43091e-236
2.13007e-236
3.12738e-236
4.5162e-236
6.39302e-236
8.8345e-236
1.18573e-235
1.53592e-235
1.90474e-235
2.2378e-235
2.45453e-235
3.05556e-226
2.78849e-226
2.38625e-226
1.93851e-226
1.50897e-226
1.13375e-226
8.2699e-227
5.88392e-227
4.09916e-227
2.80526e-227
1.89084e-227
1.25805e-227
8.27768e-228
5.39451e-228
3.48649e-228
2.23707e-228
1.42629e-228
9.04254e-229
5.70395e-229
3.58149e-229
2.23925e-229
1.39444e-229
8.64994e-230
5.34518e-230
3.29023e-230
2.01718e-230
1.23144e-230
7.48328e-231
4.52478e-231
2.72089e-231
1.62619e-231
9.65349e-232
5.68753e-232
3.32301e-232
1.92366e-232
1.10232e-232
6.24655e-233
3.4968e-233
1.93133e-233
1.05048e-233
5.60455e-234
2.96749e-234
1.55964e-234
8.13877e-235
4.21829e-235
2.17231e-235
1.11201e-235
5.66126e-236
2.86807e-236
1.44686e-236
7.27439e-237
3.64976e-237
1.83224e-237
9.26654e-238
4.81493e-238
2.71254e-238
1.8569e-238
1.74189e-238
2.18657e-238
3.21387e-238
5.01292e-238
7.9553e-238
1.26555e-237
2.00783e-237
3.17029e-237
4.97596e-237
7.75547e-237
1.19895e-236
1.83602e-236
2.78067e-236
4.15709e-236
6.12071e-236
8.85096e-236
1.25289e-235
1.72914e-235
2.31537e-235
2.98998e-235
3.6955e-235
4.32822e-235
4.73749e-235
5.82476e-226
5.32469e-226
4.5681e-226
3.72117e-226
2.90391e-226
2.18601e-226
1.5962e-226
1.13565e-226
7.90214e-227
5.39442e-227
3.62232e-227
2.39794e-227
1.56788e-227
1.01418e-227
6.49872e-228
4.13008e-228
2.60573e-228
1.63343e-228
1.01806e-228
6.31235e-229
3.89547e-229
2.3935e-229
1.46464e-229
8.92737e-230
5.42065e-230
3.27876e-230
1.9754e-230
1.18524e-230
7.08008e-231
4.20905e-231
2.48908e-231
1.46339e-231
8.54798e-232
4.95716e-232
2.85183e-232
1.62616e-232
9.18238e-233
5.12942e-233
2.83137e-233
1.54168e-233
8.2513e-234
4.38569e-234
2.31535e-234
1.21438e-234
6.32968e-235
3.27985e-235
1.69027e-235
8.6676e-236
4.42517e-236
2.2508e-236
1.14153e-236
5.78023e-237
2.92992e-237
1.49689e-237
7.86119e-238
4.47973e-238
3.10653e-238
2.95673e-238
3.76692e-238
5.61549e-238
8.87702e-238
1.42681e-237
2.29742e-237
3.68655e-237
5.88255e-237
9.32207e-237
1.46544e-236
2.28243e-236
3.51717e-236
5.35352e-236
8.03321e-236
1.18561e-235
1.7164e-235
2.42944e-235
3.34906e-235
4.47546e-235
5.76441e-235
7.10452e-235
8.29951e-235
9.0687e-235
1.10294e-225
1.00966e-225
8.68009e-226
7.087e-226
5.54222e-226
4.1789e-226
3.05417e-226
2.17298e-226
1.51049e-226
1.02895e-226
6.88677e-227
4.53877e-227
2.95115e-227
1.8962e-227
1.20569e-227
7.59576e-228
4.74626e-228
2.94422e-228
1.81455e-228
1.11182e-228
6.77658e-229
4.11059e-229
2.48243e-229
1.493e-229
8.94413e-230
5.33786e-230
3.17367e-230
1.87974e-230
1.10895e-230
6.51472e-231
3.80984e-231
2.21693e-231
1.28294e-231
7.37908e-232
4.2154e-232
2.38993e-232
1.34364e-232
7.48397e-233
4.12545e-233
2.24708e-233
1.2056e-233
6.4286e-234
3.40726e-234
1.79536e-234
9.40729e-235
4.90329e-235
2.54326e-235
1.31333e-235
6.75582e-236
3.46401e-236
1.77189e-236
9.05341e-237
4.63291e-237
2.39089e-237
1.26939e-237
7.32557e-238
5.16037e-238
5.001e-238
6.48069e-238
9.80435e-238
1.57039e-237
2.55493e-237
4.16076e-237
6.74724e-237
1.08711e-236
1.73786e-236
2.75315e-236
4.31675e-236
6.689e-236
1.02261e-235
1.53942e-235
2.27666e-235
3.29896e-235
4.66895e-235
6.42984e-235
8.57765e-235
1.10239e-234
1.35548e-234
1.5801e-234
1.72411e-234
2.07688e-225
1.90342e-225
1.6392e-225
1.3409e-225
1.05048e-225
7.93164e-226
5.80143e-226
4.12772e-226
2.86682e-226
1.94934e-226
1.301e-226
8.54109e-227
5.52621e-227
3.52969e-227
2.2288e-227
1.39309e-227
8.62863e-228
5.30135e-228
3.23354e-228
1.95949e-228
1.18049e-228
7.07418e-229
4.21885e-229
2.50488e-229
1.48112e-229
8.72395e-230
5.11941e-230
2.99327e-230
1.74376e-230
1.01204e-230
5.85047e-231
3.36776e-231
1.92966e-231
1.10001e-231
6.23514e-232
3.51191e-232
1.96415e-232
1.0899e-232
5.99455e-233
3.26343e-233
1.75359e-233
9.37312e-234
4.98388e-234
2.63656e-234
1.38799e-234
7.27335e-235
3.79522e-235
1.97279e-235
1.02208e-235
5.28107e-236
2.72356e-236
1.40373e-236
7.24972e-237
3.77845e-237
2.02851e-237
1.18703e-237
8.52055e-238
8.4403e-238
1.11506e-237
1.71285e-237
2.77884e-237
4.57307e-237
7.52603e-237
1.2323e-236
2.00302e-236
3.22742e-236
5.14849e-236
8.12044e-236
1.26446e-235
1.94052e-235
2.92933e-235
4.33981e-235
6.29343e-235
8.90603e-235
1.22544e-234
1.63241e-234
2.09411e-234
2.56986e-234
2.99045e-234
3.2592e-234
3.89288e-225
3.57111e-225
3.07977e-225
2.52329e-225
1.97969e-225
1.4965e-225
1.09531e-225
7.79334e-226
5.40877e-226
3.67206e-226
2.44474e-226
1.59957e-226
1.03049e-226
6.54739e-227
4.10883e-227
2.55009e-227
1.56703e-227
9.54398e-228
5.76639e-228
3.459e-228
2.06149e-228
1.22143e-228
7.19868e-229
4.22228e-229
2.46564e-229
1.434e-229
8.30845e-230
4.79659e-230
2.75953e-230
1.58213e-230
9.03927e-231
5.14565e-231
2.91781e-231
1.64755e-231
9.2597e-232
5.17732e-232
2.87807e-232
1.58958e-232
8.71515e-233
4.73739e-233
2.54692e-233
1.36331e-233
7.26577e-234
3.85581e-234
2.03782e-234
1.07284e-234
5.62802e-235
2.94303e-235
1.53482e-235
7.98724e-236
4.15092e-236
2.157e-236
1.12381e-236
5.91354e-237
3.21078e-237
1.90785e-237
1.40022e-237
1.4234e-237
1.92121e-237
2.99762e-237
4.92348e-237
8.1895e-237
1.36084e-236
2.24788e-236
3.68288e-236
5.97622e-236
9.59235e-236
1.52088e-235
2.37836e-235
3.66216e-235
5.54149e-235
8.22204e-235
1.19311e-234
1.68826e-234
2.32129e-234
3.08844e-234
3.95592e-234
4.84678e-234
5.63186e-234
6.13215e-234
7.26906e-225
6.67339e-225
5.76195e-225
4.72698e-225
3.71316e-225
2.80959e-225
2.05752e-225
1.46399e-225
1.01542e-225
6.88459e-226
4.57388e-226
2.9839e-226
1.91508e-226
1.21118e-226
7.55947e-227
4.66231e-227
2.84478e-227
1.71907e-227
1.02977e-227
6.12023e-228
3.61162e-228
2.11761e-228
1.23444e-228
7.15832e-229
4.13128e-229
2.37399e-229
1.35878e-229
7.74872e-230
4.40374e-230
2.49455e-230
1.40857e-230
7.92817e-231
4.44774e-231
2.48652e-231
1.38487e-231
7.68109e-232
4.24066e-232
2.32912e-232
1.2717e-232
6.89518e-233
3.70472e-233
1.98375e-233
1.05859e-233
5.62992e-234
2.98439e-234
1.57713e-234
8.31098e-235
4.36874e-235
2.29172e-235
1.20033e-235
6.28201e-236
3.28922e-236
1.72781e-236
9.17582e-237
5.03944e-237
3.04546e-237
2.29365e-237
2.40202e-237
3.31837e-237
5.25974e-237
8.74105e-237
1.46837e-236
2.46147e-236
4.0982e-236
6.7622e-236
1.1042e-235
1.78199e-235
2.83834e-235
4.4552e-235
6.87982e-235
1.04318e-234
1.54978e-234
2.25017e-234
3.18375e-234
4.37487e-234
5.8148e-234
7.43866e-234
9.10168e-234
1.05634e-233
1.14928e-233
1.35309e-224
1.24299e-224
1.07425e-224
8.8224e-225
6.93721e-225
5.25328e-225
3.84886e-225
2.73862e-225
1.8985e-225
1.28573e-225
8.52647e-226
5.54848e-226
3.54944e-226
2.23582e-226
1.38882e-226
8.51828e-227
5.16507e-227
3.09945e-227
1.84246e-227
1.08594e-227
6.35113e-228
3.68857e-228
2.12871e-228
1.22149e-228
6.97302e-229
3.96209e-229
2.2418e-229
1.26358e-229
7.0973e-230
3.97357e-230
2.21796e-230
1.23442e-230
6.85069e-231
3.79092e-231
2.09139e-231
1.15002e-231
6.3012e-232
3.43873e-232
1.86802e-232
1.00921e-232
5.41274e-233
2.89599e-233
1.54561e-233
8.22877e-234
4.37051e-234
2.31607e-234
1.22486e-234
6.46631e-235
3.40901e-235
1.79561e-235
9.45605e-236
4.985e-236
2.6384e-236
1.41348e-236
7.85394e-237
4.8357e-237
3.75145e-237
4.06177e-237
5.75102e-237
9.25902e-237
1.55585e-236
2.63729e-236
4.456e-236
7.47146e-236
1.24059e-235
2.03697e-235
3.30298e-235
5.28198e-235
8.31764e-235
1.28762e-234
1.95586e-234
2.90885e-234
4.22546e-234
5.97822e-234
8.21069e-234
1.0904e-233
1.39345e-233
1.70311e-233
1.97469e-233
2.14707e-233
2.5122e-224
2.30899e-224
1.99711e-224
1.64158e-224
1.29187e-224
9.78929e-225
7.17493e-225
5.10529e-225
3.53757e-225
2.39343e-225
1.58479e-225
1.02905e-225
6.56451e-226
4.1207e-226
2.54903e-226
1.5559e-226
9.38244e-227
5.59559e-227
3.30372e-227
1.93278e-227
1.12137e-227
6.457e-228
3.69265e-228
2.09871e-228
1.18615e-228
6.67015e-229
3.7339e-229
2.08172e-229
1.15636e-229
6.40224e-230
3.53403e-230
1.94543e-230
1.06816e-230
5.85033e-231
3.1963e-231
1.74184e-231
9.46642e-232
5.12937e-232
2.76986e-232
1.48957e-232
7.96567e-233
4.25341e-233
2.26772e-233
1.20719e-233
6.41675e-234
3.40608e-234
1.80579e-234
9.56434e-235
5.06243e-235
2.67897e-235
1.41832e-235
7.52171e-236
4.00804e-236
2.16503e-236
1.21739e-236
7.65163e-237
6.13801e-237
6.89164e-237
1.00082e-236
1.63594e-236
2.77738e-236
4.74641e-236
8.07621e-236
1.36262e-235
2.27504e-235
3.75353e-235
6.11161e-235
9.80715e-235
1.54865e-234
2.4025e-234
3.65483e-234
5.4407e-234
7.90652e-234
1.11857e-233
1.53565e-233
2.03797e-233
2.60215e-233
3.17755e-233
3.68132e-233
4.00059e-233
4.65445e-224
4.27975e-224
3.70404e-224
3.04683e-224
2.39939e-224
1.81914e-224
1.33373e-224
9.49009e-225
6.57338e-225
4.44374e-225
2.93852e-225
1.90456e-225
1.21204e-225
7.58555e-226
4.67556e-226
2.84199e-226
1.70559e-226
1.01173e-226
5.93777e-227
3.4511e-227
1.98809e-227
1.13606e-227
6.44427e-228
3.6312e-228
2.0338e-228
1.13293e-228
6.28032e-229
3.46628e-229
1.90572e-229
1.04413e-229
5.70318e-230
3.10668e-230
1.68816e-230
9.15299e-231
4.95229e-231
2.67406e-231
1.44096e-231
7.74806e-232
4.1561e-232
2.22281e-232
1.18392e-232
6.30197e-233
3.35242e-233
1.78227e-233
9.46965e-234
5.02894e-234
2.66968e-234
1.417e-234
7.52184e-235
3.99482e-235
2.12404e-235
1.13207e-235
6.06822e-236
3.30324e-236
1.88022e-236
1.209e-236
1.0066e-236
1.17466e-236
1.74978e-236
2.90191e-236
4.97325e-236
8.56124e-236
1.4658e-235
2.48662e-235
4.17168e-235
6.91154e-235
1.12938e-234
1.81766e-234
2.87709e-234
4.47148e-234
6.81101e-234
1.01471e-233
1.4751e-233
2.08683e-233
2.86397e-233
3.79864e-233
4.84685e-233
5.91427e-233
6.84749e-233
7.43822e-233
8.60867e-224
7.91835e-224
6.85672e-224
5.64342e-224
4.44669e-224
3.37283e-224
2.47345e-224
1.75997e-224
1.21866e-224
8.2327e-225
5.43803e-225
3.51908e-225
2.23492e-225
1.39517e-225
8.57308e-226
5.19232e-226
3.10324e-226
1.8322e-226
1.06972e-226
6.18184e-227
3.53906e-227
2.00877e-227
1.13129e-227
6.32599e-228
3.51461e-228
1.94131e-228
1.06668e-228
5.8337e-229
3.17721e-229
1.72406e-229
9.32532e-230
5.02989e-230
2.70642e-230
1.45316e-230
7.78801e-231
4.16694e-231
2.22606e-231
1.18741e-231
6.32354e-232
3.36106e-232
1.78134e-232
9.44258e-233
5.00637e-233
2.65495e-233
1.40836e-233
7.47356e-234
3.96781e-234
2.10793e-234
1.12086e-234
5.96741e-235
3.18294e-235
1.70315e-235
9.17508e-236
5.03022e-236
2.89952e-236
1.91181e-236
1.65774e-236
2.01334e-236
3.0745e-236
5.1683e-236
8.93303e-236
1.54774e-235
2.66436e-235
4.54136e-235
7.65047e-235
1.27208e-234
2.08499e-234
3.36415e-234
5.33573e-234
8.30535e-234
1.26645e-233
1.88801e-233
2.74546e-233
3.88394e-233
5.32885e-233
7.0647e-233
9.009e-233
1.09865e-232
1.27134e-232
1.38055e-232
1.58999e-223
1.4629e-223
1.2673e-223
1.04355e-223
8.22624e-224
6.24186e-224
4.57839e-224
3.2577e-224
2.25513e-224
1.52257e-224
1.00478e-224
6.49365e-225
4.11693e-225
2.56447e-225
1.57171e-225
9.48985e-226
5.65159e-226
3.32339e-226
1.93165e-226
1.11075e-226
6.32459e-227
3.56883e-227
1.99724e-227
1.10933e-227
6.11946e-228
3.35481e-228
1.82891e-228
9.9207e-229
5.35744e-229
2.88183e-229
1.54487e-229
8.25725e-230
4.40237e-230
2.34218e-230
1.24391e-230
6.59661e-231
3.494e-231
1.84869e-231
9.77159e-232
5.15896e-232
2.71874e-232
1.43392e-232
7.56974e-233
4.00009e-233
2.11606e-233
1.12072e-233
5.94336e-234
3.15646e-234
1.67919e-234
8.95104e-235
4.78391e-235
2.56705e-235
1.38846e-235
7.66218e-236
4.47471e-236
3.03264e-236
2.74653e-236
3.47262e-236
5.42988e-236
9.24147e-236
1.60947e-235
2.80437e-235
4.85037e-235
8.30118e-235
1.40342e-234
2.34071e-234
3.84651e-234
6.2197e-234
9.88163e-234
1.54012e-233
2.3506e-233
3.50622e-233
5.09986e-233
7.21456e-233
9.89634e-233
1.31151e-232
1.67168e-232
2.03764e-232
2.35692e-232
2.55867e-232
2.93335e-223
2.69947e-223
2.33933e-223
1.92704e-223
1.51963e-223
1.1534e-223
8.46153e-224
6.02064e-224
4.16682e-224
2.81191e-224
1.85421e-224
1.19701e-224
7.57791e-225
4.71176e-225
2.88137e-225
1.73521e-225
1.03027e-225
6.03766e-226
3.49577e-226
2.00162e-226
1.1344e-226
6.36873e-227
3.54471e-227
1.95735e-227
1.07304e-227
5.844e-228
3.16394e-228
1.70385e-228
9.1321e-229
4.87405e-229
2.59191e-229
1.374e-229
7.26433e-230
3.83222e-230
2.01806e-230
1.06124e-230
5.57488e-231
2.9263e-231
1.53512e-231
8.04846e-232
4.21546e-232
2.21076e-232
1.16113e-232
6.10846e-233
3.21924e-233
1.69983e-233
8.99397e-234
4.76941e-234
2.53537e-234
1.35152e-234
7.22893e-235
3.88551e-235
2.10789e-235
1.17016e-235
6.92722e-236
4.8369e-236
4.5848e-236
6.03016e-236
9.63854e-236
1.65881e-235
2.90826e-235
5.09226e-235
8.84317e-235
1.51876e-234
2.57545e-234
4.30668e-234
7.09277e-234
1.14895e-233
1.82804e-233
2.85221e-233
4.35648e-233
6.50128e-233
9.45822e-233
1.33801e-232
1.83504e-232
2.43115e-232
3.09764e-232
3.77428e-232
4.36418e-232
4.73672e-232
5.40671e-223
4.97653e-223
4.31378e-223
3.5546e-223
2.80394e-223
2.12868e-223
1.56185e-223
1.11129e-223
7.68971e-224
5.18718e-224
3.41828e-224
2.20469e-224
1.39404e-224
8.65459e-225
5.2827e-225
3.17434e-225
1.87994e-225
1.0985e-225
6.33944e-226
3.61668e-226
2.04154e-226
1.14118e-226
6.32177e-227
3.47322e-227
1.89383e-227
1.02554e-227
5.51892e-228
2.95331e-228
1.57245e-228
8.33503e-229
4.40092e-229
2.3159e-229
1.21524e-229
6.3619e-230
3.32431e-230
1.73461e-230
9.04196e-231
4.71026e-231
2.45288e-231
1.27709e-231
6.64643e-232
3.46466e-232
1.80948e-232
9.47051e-233
4.9683e-233
2.61301e-233
1.37803e-233
7.28857e-234
3.86722e-234
2.05909e-234
1.10091e-234
5.92031e-235
3.21811e-235
1.79604e-235
1.07836e-235
7.7738e-236
7.72025e-236
1.0544e-235
1.71934e-235
2.98824e-235
5.26943e-235
9.26542e-235
1.61458e-234
2.78116e-234
4.72827e-234
7.92401e-234
1.30743e-233
2.12111e-233
3.37883e-233
5.2766e-233
8.06459e-233
1.20397e-232
1.75187e-232
2.47827e-232
3.39839e-232
4.50126e-232
5.73353e-232
6.98376e-232
8.07307e-232
8.76065e-232
9.95823e-223
9.16724e-223
7.94813e-223
6.55099e-223
5.16878e-223
3.92476e-223
2.87997e-223
2.04916e-223
1.41772e-223
9.56022e-224
6.29671e-224
4.05812e-224
2.5634e-224
1.58941e-224
9.68663e-225
5.80994e-225
3.43346e-225
2.00135e-225
1.1518e-225
6.55087e-226
3.68532e-226
2.0524e-226
1.13241e-226
6.19471e-227
3.3622e-227
1.81178e-227
9.69951e-228
5.16213e-228
2.73279e-228
1.43991e-228
7.55559e-229
3.95043e-229
2.05921e-229
1.07069e-229
5.55594e-230
2.87869e-230
1.48997e-230