/*--------------------------------*- C++ -*----------------------------------*\
  =========                 |
  \\      /  F ield         | OpenFOAM: The Open Source CFD Toolbox
   \\    /   O peration     | Website:  https://openfoam.org
    \\  /    A nd           | Version:  11
     \\/     M anipulation  |
\*---------------------------------------------------------------------------*/
FoamFile
{
    format      ascii;
    class       volScalarField;
    location    "354";
    object      p;
}
// * * * * * * * * * * * * * * * * * * * * * * * * * * * * * * * * * * * * * //

dimensions      [0 2 -2 0 0 0 0];

internalField   nonuniform List<scalar> 
332800
(
1.09665
1.05347
1.02318
1.00585
0.994452
0.986116
0.979909
0.975262
0.971731
0.969
0.96685
0.965129
0.963729
0.962574
0.961608
0.96079
0.96009
0.959486
0.95896
0.958501
0.958096
0.957738
0.957421
0.957139
0.956888
0.956665
0.956466
0.956289
0.956132
0.955993
0.955871
0.955763
0.955671
0.955591
0.955525
0.95547
0.955427
0.955394
0.955373
0.955363
0.955363
0.955373
0.955394
0.955427
0.95547
0.955525
0.955591
0.955671
0.955763
0.955871
0.955993
0.956132
0.956289
0.956466
0.956665
0.956888
0.957139
0.957421
0.957738
0.958096
0.958501
0.95896
0.959486
0.96009
0.96079
0.961608
0.962574
0.963729
0.965129
0.96685
0.969
0.971731
0.975262
0.979909
0.986116
0.994452
1.00585
1.02318
1.05347
1.09665
0.999894
0.997293
0.993206
0.988647
0.984222
0.98019
0.976661
0.973639
0.971078
0.968914
0.967086
0.965537
0.964219
0.963093
0.962125
0.961289
0.960563
0.95993
0.959374
0.958885
0.958453
0.95807
0.95773
0.957427
0.957157
0.956917
0.956703
0.956512
0.956343
0.956194
0.956062
0.955947
0.955847
0.955762
0.95569
0.955631
0.955584
0.95555
0.955527
0.955516
0.955516
0.955527
0.95555
0.955584
0.955631
0.95569
0.955762
0.955847
0.955947
0.956062
0.956194
0.956343
0.956512
0.956703
0.956917
0.957157
0.957427
0.95773
0.95807
0.958453
0.958885
0.959374
0.95993
0.960563
0.961289
0.962125
0.963093
0.964219
0.965537
0.967086
0.968914
0.971078
0.973639
0.976661
0.98019
0.984222
0.988647
0.993206
0.997293
0.999894
0.976116
0.978198
0.979258
0.978519
0.976887
0.974963
0.972999
0.971111
0.969358
0.967766
0.966341
0.965074
0.963954
0.962964
0.962091
0.961319
0.960636
0.96003
0.959493
0.959014
0.958588
0.958207
0.957867
0.957563
0.95729
0.957047
0.95683
0.956636
0.956463
0.95631
0.956175
0.956057
0.955954
0.955867
0.955793
0.955732
0.955684
0.955649
0.955625
0.955613
0.955613
0.955625
0.955649
0.955684
0.955732
0.955793
0.955867
0.955954
0.956057
0.956175
0.95631
0.956463
0.956636
0.95683
0.957047
0.95729
0.957563
0.957867
0.958207
0.958588
0.959014
0.959493
0.96003
0.960636
0.961319
0.962091
0.962964
0.963954
0.965074
0.966341
0.967766
0.969358
0.971111
0.972999
0.974963
0.976887
0.978519
0.979258
0.978198
0.976116
0.96737
0.96934
0.970806
0.971139
0.970758
0.970006
0.969057
0.968013
0.966946
0.9659
0.964905
0.963974
0.963114
0.962325
0.961607
0.960955
0.960365
0.959831
0.959348
0.958913
0.958519
0.958164
0.957844
0.957555
0.957295
0.957061
0.956851
0.956663
0.956494
0.956345
0.956212
0.956096
0.955995
0.955909
0.955836
0.955776
0.955728
0.955693
0.955669
0.955658
0.955658
0.955669
0.955693
0.955728
0.955776
0.955836
0.955909
0.955995
0.956096
0.956212
0.956345
0.956494
0.956663
0.956851
0.957061
0.957295
0.957555
0.957844
0.958164
0.958519
0.958913
0.959348
0.959831
0.960365
0.960955
0.961607
0.962325
0.963114
0.963974
0.964905
0.9659
0.966946
0.968013
0.969057
0.970006
0.970758
0.971139
0.970806
0.96934
0.96737
0.962531
0.96405
0.965349
0.965999
0.966167
0.96602
0.96566
0.965157
0.964568
0.963934
0.963287
0.962646
0.962027
0.961436
0.96088
0.960361
0.959878
0.959432
0.959022
0.958645
0.9583
0.957984
0.957696
0.957434
0.957196
0.95698
0.956785
0.956609
0.956451
0.95631
0.956185
0.956074
0.955978
0.955895
0.955826
0.955768
0.955722
0.955689
0.955666
0.955655
0.955655
0.955666
0.955689
0.955722
0.955768
0.955826
0.955895
0.955978
0.956074
0.956185
0.95631
0.956451
0.956609
0.956785
0.95698
0.957196
0.957434
0.957696
0.957984
0.9583
0.958645
0.959022
0.959432
0.959878
0.960361
0.96088
0.961436
0.962027
0.962646
0.963287
0.963934
0.964568
0.965157
0.96566
0.96602
0.966167
0.965999
0.965349
0.96405
0.962531
0.959691
0.960808
0.961848
0.962508
0.962855
0.962973
0.962915
0.962722
0.962434
0.96208
0.961686
0.96127
0.960847
0.960427
0.960017
0.959623
0.959247
0.958892
0.958559
0.958247
0.957957
0.957689
0.957441
0.957212
0.957003
0.956811
0.956637
0.956478
0.956335
0.956207
0.956092
0.955991
0.955902
0.955826
0.955761
0.955708
0.955665
0.955634
0.955613
0.955602
0.955602
0.955613
0.955634
0.955665
0.955708
0.955761
0.955826
0.955902
0.955991
0.956092
0.956207
0.956335
0.956478
0.956637
0.956811
0.957003
0.957212
0.957441
0.957689
0.957957
0.958247
0.958559
0.958892
0.959247
0.959623
0.960017
0.960427
0.960847
0.96127
0.961686
0.96208
0.962434
0.962722
0.962915
0.962973
0.962855
0.962508
0.961848
0.960808
0.959691
0.957813
0.958643
0.959455
0.960035
0.960414
0.960634
0.960721
0.9607
0.960592
0.96042
0.9602
0.959948
0.959675
0.959391
0.959103
0.958817
0.958537
0.958266
0.958006
0.957759
0.957525
0.957305
0.957099
0.956908
0.95673
0.956567
0.956416
0.956279
0.956154
0.956041
0.955939
0.955849
0.95577
0.955702
0.955644
0.955596
0.955558
0.955529
0.955511
0.955501
0.955501
0.955511
0.955529
0.955558
0.955596
0.955644
0.955702
0.95577
0.955849
0.955939
0.956041
0.956154
0.956279
0.956416
0.956567
0.95673
0.956908
0.957099
0.957305
0.957525
0.957759
0.958006
0.958266
0.958537
0.958817
0.959103
0.959391
0.959675
0.959948
0.9602
0.96042
0.960592
0.9607
0.960721
0.960634
0.960414
0.960035
0.959455
0.958643
0.957813
0.956458
0.957089
0.957726
0.958215
0.958571
0.958818
0.958969
0.959036
0.959033
0.958973
0.958868
0.95873
0.958566
0.958385
0.958193
0.957995
0.957795
0.957597
0.957402
0.957214
0.957032
0.956859
0.956695
0.95654
0.956395
0.95626
0.956135
0.95602
0.955914
0.955818
0.955732
0.955655
0.955587
0.955528
0.955477
0.955436
0.955402
0.955378
0.955361
0.955353
0.955353
0.955361
0.955378
0.955402
0.955436
0.955477
0.955528
0.955587
0.955655
0.955732
0.955818
0.955914
0.95602
0.956135
0.95626
0.956395
0.95654
0.956695
0.956859
0.957032
0.957214
0.957402
0.957597
0.957795
0.957995
0.958193
0.958385
0.958566
0.95873
0.958868
0.958973
0.959033
0.959036
0.958969
0.958818
0.958571
0.958215
0.957726
0.957089
0.956458
0.955421
0.955912
0.956419
0.956826
0.957142
0.957384
0.957555
0.957664
0.957718
0.957726
0.957695
0.957632
0.957545
0.957439
0.957319
0.957189
0.957054
0.956915
0.956776
0.956639
0.956504
0.956373
0.956247
0.956127
0.956013
0.955906
0.955805
0.955712
0.955627
0.955548
0.955477
0.955413
0.955357
0.955307
0.955265
0.95523
0.955202
0.955181
0.955168
0.955161
0.955161
0.955168
0.955181
0.955202
0.95523
0.955265
0.955307
0.955357
0.955413
0.955477
0.955548
0.955627
0.955712
0.955805
0.955906
0.956013
0.956127
0.956247
0.956373
0.956504
0.956639
0.956776
0.956915
0.957054
0.957189
0.957319
0.957439
0.957545
0.957632
0.957695
0.957726
0.957718
0.957664
0.957555
0.957384
0.957142
0.956826
0.956419
0.955912
0.955421
0.954593
0.954983
0.955391
0.955729
0.956004
0.956226
0.956398
0.956523
0.956606
0.956652
0.956666
0.956652
0.956617
0.956564
0.956497
0.95642
0.956334
0.956243
0.956149
0.956053
0.955958
0.955863
0.955771
0.955682
0.955597
0.955515
0.955438
0.955366
0.955299
0.955238
0.955182
0.955131
0.955086
0.955047
0.955013
0.954985
0.954962
0.954945
0.954934
0.954928
0.954928
0.954934
0.954945
0.954962
0.954985
0.955013
0.955047
0.955086
0.955131
0.955182
0.955238
0.955299
0.955366
0.955438
0.955515
0.955597
0.955682
0.955771
0.955863
0.955958
0.956053
0.956149
0.956243
0.956334
0.95642
0.956497
0.956564
0.956617
0.956652
0.956666
0.956652
0.956606
0.956523
0.956398
0.956226
0.956004
0.955729
0.955391
0.954983
0.954593
0.953908
0.954222
0.954555
0.954837
0.955074
0.955273
0.955435
0.955562
0.955657
0.955723
0.955763
0.955781
0.95578
0.955764
0.955734
0.955694
0.955646
0.955592
0.955534
0.955472
0.955409
0.955345
0.955281
0.955219
0.955158
0.9551
0.955044
0.954991
0.954941
0.954896
0.954853
0.954815
0.954781
0.954751
0.954725
0.954703
0.954686
0.954673
0.954664
0.95466
0.95466
0.954664
0.954673
0.954686
0.954703
0.954725
0.954751
0.954781
0.954815
0.954853
0.954896
0.954941
0.954991
0.955044
0.9551
0.955158
0.955219
0.955281
0.955345
0.955409
0.955472
0.955534
0.955592
0.955646
0.955694
0.955734
0.955764
0.95578
0.955781
0.955763
0.955723
0.955657
0.955562
0.955435
0.955273
0.955074
0.954837
0.954555
0.954222
0.953908
0.953324
0.953581
0.953855
0.954092
0.954295
0.95447
0.954618
0.95474
0.954838
0.954913
0.954967
0.955004
0.955025
0.955033
0.95503
0.955017
0.954997
0.95497
0.954939
0.954904
0.954866
0.954827
0.954787
0.954747
0.954707
0.954668
0.954631
0.954595
0.954561
0.954529
0.954499
0.954472
0.954448
0.954427
0.954408
0.954393
0.95438
0.954371
0.954365
0.954361
0.954361
0.954365
0.954371
0.95438
0.954393
0.954408
0.954427
0.954448
0.954472
0.954499
0.954529
0.954561
0.954595
0.954631
0.954668
0.954707
0.954747
0.954787
0.954827
0.954866
0.954904
0.954939
0.95497
0.954997
0.955017
0.95503
0.955033
0.955025
0.955004
0.954967
0.954913
0.954838
0.95474
0.954618
0.95447
0.954295
0.954092
0.953855
0.953581
0.953324
0.952815
0.953027
0.953255
0.953454
0.953628
0.953781
0.953914
0.954028
0.954122
0.9542
0.954261
0.954308
0.954343
0.954367
0.954381
0.954387
0.954386
0.95438
0.954369
0.954354
0.954336
0.954317
0.954296
0.954274
0.954251
0.954228
0.954206
0.954184
0.954164
0.954144
0.954125
0.954108
0.954093
0.954079
0.954067
0.954057
0.954049
0.954043
0.954039
0.954037
0.954037
0.954039
0.954043
0.954049
0.954057
0.954067
0.954079
0.954093
0.954108
0.954125
0.954144
0.954164
0.954184
0.954206
0.954228
0.954251
0.954274
0.954296
0.954317
0.954336
0.954354
0.954369
0.95438
0.954386
0.954387
0.954381
0.954367
0.954343
0.954308
0.954261
0.9542
0.954122
0.954028
0.953914
0.953781
0.953628
0.953454
0.953255
0.953027
0.952815
0.952361
0.952537
0.952728
0.952896
0.953045
0.953179
0.953298
0.953401
0.95349
0.953566
0.953629
0.953681
0.953723
0.953757
0.953782
0.953801
0.953813
0.953821
0.953825
0.953826
0.953823
0.953818
0.953812
0.953804
0.953795
0.953786
0.953776
0.953766
0.953757
0.953747
0.953738
0.953729
0.953722
0.953715
0.953708
0.953703
0.953699
0.953696
0.953693
0.953692
0.953692
0.953693
0.953696
0.953699
0.953703
0.953708
0.953715
0.953722
0.953729
0.953738
0.953747
0.953757
0.953766
0.953776
0.953786
0.953795
0.953804
0.953812
0.953818
0.953823
0.953826
0.953825
0.953821
0.953813
0.953801
0.953782
0.953757
0.953723
0.953681
0.953629
0.953566
0.95349
0.953401
0.953298
0.953179
0.953045
0.952896
0.952728
0.952537
0.952361
0.951949
0.952096
0.952256
0.952399
0.952527
0.952644
0.952749
0.952842
0.952924
0.952996
0.953058
0.953112
0.953157
0.953196
0.953228
0.953255
0.953276
0.953294
0.953308
0.95332
0.953328
0.953335
0.953339
0.953343
0.953345
0.953346
0.953346
0.953345
0.953344
0.953343
0.953342
0.95334
0.953339
0.953337
0.953336
0.953335
0.953334
0.953333
0.953332
0.953332
0.953332
0.953332
0.953333
0.953334
0.953335
0.953336
0.953337
0.953339
0.95334
0.953342
0.953343
0.953344
0.953345
0.953346
0.953346
0.953345
0.953343
0.953339
0.953335
0.953328
0.95332
0.953308
0.953294
0.953276
0.953255
0.953228
0.953196
0.953157
0.953112
0.953058
0.952996
0.952924
0.952842
0.952749
0.952644
0.952527
0.952399
0.952256
0.952096
0.951949
0.951568
0.951692
0.951828
0.951949
0.952059
0.952161
0.952253
0.952336
0.952411
0.952478
0.952537
0.95259
0.952636
0.952677
0.952713
0.952744
0.952772
0.952796
0.952817
0.952836
0.952853
0.952867
0.95288
0.952891
0.952901
0.95291
0.952918
0.952925
0.952931
0.952936
0.952941
0.952945
0.952949
0.952952
0.952954
0.952956
0.952958
0.952959
0.95296
0.95296
0.95296
0.95296
0.952959
0.952958
0.952956
0.952954
0.952952
0.952949
0.952945
0.952941
0.952936
0.952931
0.952925
0.952918
0.95291
0.952901
0.952891
0.95288
0.952867
0.952853
0.952836
0.952817
0.952796
0.952772
0.952744
0.952713
0.952677
0.952636
0.95259
0.952537
0.952478
0.952411
0.952336
0.952253
0.952161
0.952059
0.951949
0.951828
0.951692
0.951568
0.951212
0.951317
0.951432
0.951536
0.95163
0.951718
0.951799
0.951873
0.951941
0.952002
0.952058
0.952108
0.952154
0.952195
0.952232
0.952266
0.952297
0.952325
0.95235
0.952374
0.952396
0.952416
0.952434
0.952451
0.952467
0.952482
0.952495
0.952508
0.952519
0.95253
0.952539
0.952547
0.952555
0.952561
0.952567
0.952571
0.952575
0.952578
0.95258
0.952581
0.952581
0.95258
0.952578
0.952575
0.952571
0.952567
0.952561
0.952555
0.952547
0.952539
0.95253
0.952519
0.952508
0.952495
0.952482
0.952467
0.952451
0.952434
0.952416
0.952396
0.952374
0.95235
0.952325
0.952297
0.952266
0.952232
0.952195
0.952154
0.952108
0.952058
0.952002
0.951941
0.951873
0.951799
0.951718
0.95163
0.951536
0.951432
0.951317
0.951212
0.950875
0.950964
0.951062
0.95115
0.951232
0.951308
0.951379
0.951445
0.951505
0.951561
0.951612
0.95166
0.951703
0.951743
0.95178
0.951815
0.951847
0.951877
0.951905
0.951932
0.951957
0.951981
0.952003
0.952024
0.952044
0.952062
0.95208
0.952096
0.952111
0.952125
0.952138
0.95215
0.95216
0.952169
0.952177
0.952184
0.952189
0.952193
0.952196
0.952197
0.952197
0.952196
0.952193
0.952189
0.952184
0.952177
0.952169
0.95216
0.95215
0.952138
0.952125
0.952111
0.952096
0.95208
0.952062
0.952044
0.952024
0.952003
0.951981
0.951957
0.951932
0.951905
0.951877
0.951847
0.951815
0.95178
0.951743
0.951703
0.95166
0.951612
0.951561
0.951505
0.951445
0.951379
0.951308
0.951232
0.95115
0.951062
0.950964
0.950875
0.950553
0.950628
0.950711
0.950787
0.950858
0.950924
0.950986
0.951044
0.951098
0.951148
0.951195
0.951239
0.95128
0.951318
0.951354
0.951388
0.95142
0.951451
0.95148
0.951508
0.951535
0.951561
0.951585
0.951609
0.951631
0.951652
0.951673
0.951692
0.951709
0.951726
0.951741
0.951755
0.951767
0.951778
0.951788
0.951796
0.951802
0.951807
0.95181
0.951812
0.951812
0.95181
0.951807
0.951802
0.951796
0.951788
0.951778
0.951767
0.951755
0.951741
0.951726
0.951709
0.951692
0.951673
0.951652
0.951631
0.951609
0.951585
0.951561
0.951535
0.951508
0.95148
0.951451
0.95142
0.951388
0.951354
0.951318
0.95128
0.951239
0.951195
0.951148
0.951098
0.951044
0.950986
0.950924
0.950858
0.950787
0.950711
0.950628
0.950553
0.950242
0.950306
0.950377
0.950442
0.950502
0.95056
0.950614
0.950665
0.950713
0.950758
0.950801
0.950841
0.950879
0.950915
0.950949
0.950982
0.951014
0.951044
0.951073
0.951102
0.951129
0.951156
0.951181
0.951206
0.95123
0.951252
0.951274
0.951295
0.951314
0.951332
0.951349
0.951364
0.951378
0.95139
0.951401
0.95141
0.951417
0.951422
0.951426
0.951428
0.951428
0.951426
0.951422
0.951417
0.95141
0.951401
0.95139
0.951378
0.951364
0.951349
0.951332
0.951314
0.951295
0.951274
0.951252
0.95123
0.951206
0.951181
0.951156
0.951129
0.951102
0.951073
0.951044
0.951014
0.950982
0.950949
0.950915
0.950879
0.950841
0.950801
0.950758
0.950713
0.950665
0.950614
0.95056
0.950502
0.950442
0.950377
0.950306
0.950242
0.949939
0.949994
0.950054
0.95011
0.950163
0.950212
0.95026
0.950304
0.950347
0.950387
0.950425
0.950462
0.950497
0.95053
0.950563
0.950594
0.950624
0.950653
0.950682
0.95071
0.950737
0.950764
0.950789
0.950815
0.950839
0.950862
0.950884
0.950906
0.950926
0.950945
0.950962
0.950978
0.950993
0.951006
0.951017
0.951027
0.951034
0.95104
0.951044
0.951046
0.951046
0.951044
0.95104
0.951034
0.951027
0.951017
0.951006
0.950993
0.950978
0.950962
0.950945
0.950926
0.950906
0.950884
0.950862
0.950839
0.950815
0.950789
0.950764
0.950737
0.95071
0.950682
0.950653
0.950624
0.950594
0.950563
0.95053
0.950497
0.950462
0.950425
0.950387
0.950347
0.950304
0.95026
0.950212
0.950163
0.95011
0.950054
0.949994
0.949939
0.949643
0.94969
0.949742
0.94979
0.949835
0.949878
0.949919
0.949958
0.949996
0.950032
0.950066
0.950099
0.950131
0.950162
0.950192
0.950221
0.950249
0.950277
0.950305
0.950332
0.950358
0.950384
0.950409
0.950434
0.950458
0.950481
0.950504
0.950525
0.950546
0.950565
0.950582
0.950599
0.950614
0.950627
0.950638
0.950648
0.950656
0.950662
0.950666
0.950668
0.950668
0.950666
0.950662
0.950656
0.950648
0.950638
0.950627
0.950614
0.950599
0.950582
0.950565
0.950546
0.950525
0.950504
0.950481
0.950458
0.950434
0.950409
0.950384
0.950358
0.950332
0.950305
0.950277
0.950249
0.950221
0.950192
0.950162
0.950131
0.950099
0.950066
0.950032
0.949996
0.949958
0.949919
0.949878
0.949835
0.94979
0.949742
0.94969
0.949643
0.949353
0.949392
0.949437
0.949478
0.949517
0.949554
0.94959
0.949624
0.949657
0.949689
0.94972
0.949749
0.949778
0.949806
0.949834
0.949861
0.949888
0.949914
0.94994
0.949965
0.949991
0.950015
0.95004
0.950064
0.950087
0.95011
0.950132
0.950153
0.950173
0.950192
0.950209
0.950226
0.95024
0.950253
0.950265
0.950274
0.950282
0.950288
0.950292
0.950294
0.950294
0.950292
0.950288
0.950282
0.950274
0.950265
0.950253
0.95024
0.950226
0.950209
0.950192
0.950173
0.950153
0.950132
0.95011
0.950087
0.950064
0.95004
0.950015
0.949991
0.949965
0.94994
0.949914
0.949888
0.949861
0.949834
0.949806
0.949778
0.949749
0.94972
0.949689
0.949657
0.949624
0.94959
0.949554
0.949517
0.949478
0.949437
0.949392
0.949353
0.949066
0.9491
0.949137
0.949173
0.949206
0.949238
0.949269
0.949299
0.949329
0.949357
0.949384
0.949411
0.949437
0.949462
0.949487
0.949512
0.949537
0.949561
0.949585
0.949609
0.949633
0.949657
0.94968
0.949703
0.949725
0.949747
0.949768
0.949788
0.949808
0.949826
0.949843
0.949859
0.949873
0.949886
0.949897
0.949906
0.949914
0.94992
0.949924
0.949926
0.949926
0.949924
0.94992
0.949914
0.949906
0.949897
0.949886
0.949873
0.949859
0.949843
0.949826
0.949808
0.949788
0.949768
0.949747
0.949725
0.949703
0.94968
0.949657
0.949633
0.949609
0.949585
0.949561
0.949537
0.949512
0.949487
0.949462
0.949437
0.949411
0.949384
0.949357
0.949329
0.949299
0.949269
0.949238
0.949206
0.949173
0.949137
0.9491
0.949066
0.948782
0.94881
0.948843
0.948873
0.948901
0.948929
0.948956
0.948983
0.949008
0.949033
0.949057
0.949081
0.949104
0.949127
0.94915
0.949173
0.949195
0.949218
0.94924
0.949263
0.949285
0.949307
0.949329
0.94935
0.949371
0.949392
0.949412
0.949431
0.94945
0.949467
0.949484
0.949499
0.949512
0.949525
0.949535
0.949544
0.949552
0.949557
0.949561
0.949563
0.949563
0.949561
0.949557
0.949552
0.949544
0.949535
0.949525
0.949512
0.949499
0.949484
0.949467
0.94945
0.949431
0.949412
0.949392
0.949371
0.94935
0.949329
0.949307
0.949285
0.949263
0.94924
0.949218
0.949195
0.949173
0.94915
0.949127
0.949104
0.949081
0.949057
0.949033
0.949008
0.948983
0.948956
0.948929
0.948901
0.948873
0.948843
0.94881
0.948782
0.948499
0.948524
0.948551
0.948577
0.948602
0.948626
0.948649
0.948672
0.948694
0.948716
0.948738
0.948759
0.94878
0.9488
0.948821
0.948842
0.948862
0.948883
0.948903
0.948924
0.948944
0.948965
0.948985
0.949005
0.949025
0.949044
0.949063
0.949081
0.949099
0.949115
0.949131
0.949145
0.949158
0.949169
0.94918
0.949188
0.949195
0.9492
0.949204
0.949206
0.949206
0.949204
0.9492
0.949195
0.949188
0.94918
0.949169
0.949158
0.949145
0.949131
0.949115
0.949099
0.949081
0.949063
0.949044
0.949025
0.949005
0.948985
0.948965
0.948944
0.948924
0.948903
0.948883
0.948862
0.948842
0.948821
0.9488
0.94878
0.948759
0.948738
0.948716
0.948694
0.948672
0.948649
0.948626
0.948602
0.948577
0.948551
0.948524
0.948499
0.948218
0.948239
0.948262
0.948284
0.948306
0.948326
0.948347
0.948366
0.948386
0.948405
0.948424
0.948443
0.948461
0.94848
0.948499
0.948517
0.948536
0.948554
0.948573
0.948592
0.948611
0.94863
0.948649
0.948667
0.948686
0.948704
0.948721
0.948738
0.948754
0.948769
0.948784
0.948797
0.948809
0.94882
0.94883
0.948838
0.948844
0.948849
0.948853
0.948854
0.948854
0.948853
0.948849
0.948844
0.948838
0.94883
0.94882
0.948809
0.948797
0.948784
0.948769
0.948754
0.948738
0.948721
0.948704
0.948686
0.948667
0.948649
0.94863
0.948611
0.948592
0.948573
0.948554
0.948536
0.948517
0.948499
0.94848
0.948461
0.948443
0.948424
0.948405
0.948386
0.948366
0.948347
0.948326
0.948306
0.948284
0.948262
0.948239
0.948218
0.947938
0.947955
0.947975
0.947994
0.948012
0.94803
0.948048
0.948065
0.948082
0.948099
0.948115
0.948132
0.948148
0.948165
0.948182
0.948198
0.948215
0.948232
0.948249
0.948266
0.948284
0.948301
0.948318
0.948335
0.948352
0.948369
0.948385
0.9484
0.948415
0.94843
0.948443
0.948455
0.948467
0.948477
0.948486
0.948493
0.948499
0.948504
0.948507
0.948508
0.948508
0.948507
0.948504
0.948499
0.948493
0.948486
0.948477
0.948467
0.948455
0.948443
0.94843
0.948415
0.9484
0.948385
0.948369
0.948352
0.948335
0.948318
0.948301
0.948284
0.948266
0.948249
0.948232
0.948215
0.948198
0.948182
0.948165
0.948148
0.948132
0.948115
0.948099
0.948082
0.948065
0.948048
0.94803
0.948012
0.947994
0.947975
0.947955
0.947938
0.947658
0.947673
0.94769
0.947706
0.947721
0.947736
0.947752
0.947767
0.947781
0.947796
0.947811
0.947825
0.94784
0.947855
0.94787
0.947885
0.9479
0.947915
0.94793
0.947946
0.947962
0.947977
0.947993
0.948009
0.948024
0.948039
0.948054
0.948068
0.948082
0.948095
0.948107
0.948119
0.948129
0.948138
0.948147
0.948154
0.948159
0.948163
0.948166
0.948168
0.948168
0.948166
0.948163
0.948159
0.948154
0.948147
0.948138
0.948129
0.948119
0.948107
0.948095
0.948082
0.948068
0.948054
0.948039
0.948024
0.948009
0.947993
0.947977
0.947962
0.947946
0.94793
0.947915
0.9479
0.947885
0.94787
0.947855
0.94784
0.947825
0.947811
0.947796
0.947781
0.947767
0.947752
0.947736
0.947721
0.947706
0.94769
0.947673
0.947658
0.947378
0.947391
0.947405
0.947418
0.947432
0.947445
0.947458
0.947471
0.947484
0.947496
0.947509
0.947522
0.947535
0.947548
0.947561
0.947575
0.947588
0.947602
0.947616
0.94763
0.947644
0.947658
0.947672
0.947687
0.947701
0.947714
0.947728
0.947741
0.947753
0.947765
0.947777
0.947787
0.947797
0.947805
0.947813
0.947819
0.947824
0.947828
0.947831
0.947832
0.947832
0.947831
0.947828
0.947824
0.947819
0.947813
0.947805
0.947797
0.947787
0.947777
0.947765
0.947753
0.947741
0.947728
0.947714
0.947701
0.947687
0.947672
0.947658
0.947644
0.94763
0.947616
0.947602
0.947588
0.947575
0.947561
0.947548
0.947535
0.947522
0.947509
0.947496
0.947484
0.947471
0.947458
0.947445
0.947432
0.947418
0.947405
0.947391
0.947378
0.947098
0.947109
0.94712
0.947132
0.947143
0.947155
0.947166
0.947177
0.947188
0.947199
0.94721
0.947222
0.947233
0.947245
0.947256
0.947268
0.94728
0.947293
0.947305
0.947318
0.94733
0.947343
0.947356
0.947369
0.947382
0.947394
0.947406
0.947418
0.947429
0.94744
0.94745
0.94746
0.947469
0.947476
0.947483
0.947489
0.947494
0.947497
0.9475
0.947501
0.947501
0.9475
0.947497
0.947494
0.947489
0.947483
0.947476
0.947469
0.94746
0.94745
0.94744
0.947429
0.947418
0.947406
0.947394
0.947382
0.947369
0.947356
0.947343
0.94733
0.947318
0.947305
0.947293
0.94728
0.947268
0.947256
0.947245
0.947233
0.947222
0.94721
0.947199
0.947188
0.947177
0.947166
0.947155
0.947143
0.947132
0.94712
0.947109
0.947098
0.946818
0.946826
0.946836
0.946846
0.946856
0.946865
0.946875
0.946885
0.946894
0.946904
0.946914
0.946924
0.946934
0.946944
0.946954
0.946965
0.946976
0.946986
0.946998
0.947009
0.94702
0.947032
0.947043
0.947055
0.947066
0.947077
0.947088
0.947099
0.947109
0.947119
0.947128
0.947137
0.947145
0.947152
0.947158
0.947163
0.947168
0.947171
0.947173
0.947174
0.947174
0.947173
0.947171
0.947168
0.947163
0.947158
0.947152
0.947145
0.947137
0.947128
0.947119
0.947109
0.947099
0.947088
0.947077
0.947066
0.947055
0.947043
0.947032
0.94702
0.947009
0.946998
0.946986
0.946976
0.946965
0.946954
0.946944
0.946934
0.946924
0.946914
0.946904
0.946894
0.946885
0.946875
0.946865
0.946856
0.946846
0.946836
0.946826
0.946818
0.946537
0.946544
0.946552
0.946561
0.946569
0.946577
0.946585
0.946593
0.946602
0.94661
0.946619
0.946627
0.946636
0.946645
0.946654
0.946664
0.946673
0.946683
0.946693
0.946703
0.946713
0.946723
0.946734
0.946744
0.946754
0.946764
0.946774
0.946784
0.946793
0.946802
0.94681
0.946818
0.946825
0.946831
0.946837
0.946842
0.946845
0.946848
0.94685
0.946851
0.946851
0.94685
0.946848
0.946845
0.946842
0.946837
0.946831
0.946825
0.946818
0.94681
0.946802
0.946793
0.946784
0.946774
0.946764
0.946754
0.946744
0.946734
0.946723
0.946713
0.946703
0.946693
0.946683
0.946673
0.946664
0.946654
0.946645
0.946636
0.946627
0.946619
0.94661
0.946602
0.946593
0.946585
0.946577
0.946569
0.946561
0.946552
0.946544
0.946537
0.946255
0.946261
0.946268
0.946275
0.946282
0.946289
0.946296
0.946303
0.94631
0.946318
0.946325
0.946333
0.94634
0.946348
0.946356
0.946364
0.946373
0.946381
0.94639
0.946399
0.946408
0.946417
0.946427
0.946436
0.946445
0.946454
0.946463
0.946471
0.94648
0.946488
0.946495
0.946502
0.946508
0.946514
0.946519
0.946523
0.946527
0.946529
0.946531
0.946532
0.946532
0.946531
0.946529
0.946527
0.946523
0.946519
0.946514
0.946508
0.946502
0.946495
0.946488
0.94648
0.946471
0.946463
0.946454
0.946445
0.946436
0.946427
0.946417
0.946408
0.946399
0.94639
0.946381
0.946373
0.946364
0.946356
0.946348
0.94634
0.946333
0.946325
0.946318
0.94631
0.946303
0.946296
0.946289
0.946282
0.946275
0.946268
0.946261
0.946255
0.945973
0.945978
0.945984
0.94599
0.945995
0.946001
0.946007
0.946013
0.94602
0.946026
0.946032
0.946039
0.946046
0.946052
0.94606
0.946067
0.946074
0.946082
0.94609
0.946098
0.946106
0.946114
0.946122
0.94613
0.946138
0.946146
0.946154
0.946162
0.946169
0.946176
0.946183
0.946189
0.946195
0.9462
0.946204
0.946208
0.946211
0.946214
0.946215
0.946216
0.946216
0.946215
0.946214
0.946211
0.946208
0.946204
0.9462
0.946195
0.946189
0.946183
0.946176
0.946169
0.946162
0.946154
0.946146
0.946138
0.94613
0.946122
0.946114
0.946106
0.946098
0.94609
0.946082
0.946074
0.946067
0.94606
0.946052
0.946046
0.946039
0.946032
0.946026
0.94602
0.946013
0.946007
0.946001
0.945995
0.94599
0.945984
0.945978
0.945973
0.94569
0.945694
0.945699
0.945704
0.945709
0.945714
0.945719
0.945724
0.945729
0.945735
0.94574
0.945746
0.945752
0.945758
0.945764
0.945771
0.945777
0.945784
0.945791
0.945798
0.945805
0.945812
0.945819
0.945826
0.945834
0.945841
0.945848
0.945855
0.945861
0.945867
0.945873
0.945879
0.945884
0.945889
0.945893
0.945896
0.945899
0.945901
0.945902
0.945903
0.945903
0.945902
0.945901
0.945899
0.945896
0.945893
0.945889
0.945884
0.945879
0.945873
0.945867
0.945861
0.945855
0.945848
0.945841
0.945834
0.945826
0.945819
0.945812
0.945805
0.945798
0.945791
0.945784
0.945777
0.945771
0.945764
0.945758
0.945752
0.945746
0.94574
0.945735
0.945729
0.945724
0.945719
0.945714
0.945709
0.945704
0.945699
0.945694
0.94569
0.945407
0.94541
0.945414
0.945418
0.945422
0.945426
0.945431
0.945435
0.94544
0.945444
0.945449
0.945454
0.945459
0.945464
0.94547
0.945475
0.945481
0.945487
0.945493
0.945499
0.945505
0.945512
0.945518
0.945525
0.945531
0.945537
0.945544
0.94555
0.945555
0.945561
0.945566
0.945571
0.945576
0.94558
0.945583
0.945586
0.945589
0.94559
0.945592
0.945592
0.945592
0.945592
0.94559
0.945589
0.945586
0.945583
0.94558
0.945576
0.945571
0.945566
0.945561
0.945555
0.94555
0.945544
0.945537
0.945531
0.945525
0.945518
0.945512
0.945505
0.945499
0.945493
0.945487
0.945481
0.945475
0.94547
0.945464
0.945459
0.945454
0.945449
0.945444
0.94544
0.945435
0.945431
0.945426
0.945422
0.945418
0.945414
0.94541
0.945407
0.945122
0.945125
0.945128
0.945132
0.945135
0.945139
0.945142
0.945146
0.94515
0.945154
0.945158
0.945162
0.945167
0.945171
0.945176
0.945181
0.945186
0.945191
0.945196
0.945202
0.945207
0.945213
0.945219
0.945224
0.94523
0.945236
0.945241
0.945246
0.945252
0.945256
0.945261
0.945265
0.945269
0.945273
0.945276
0.945279
0.945281
0.945283
0.945284
0.945284
0.945284
0.945284
0.945283
0.945281
0.945279
0.945276
0.945273
0.945269
0.945265
0.945261
0.945256
0.945252
0.945246
0.945241
0.945236
0.94523
0.945224
0.945219
0.945213
0.945207
0.945202
0.945196
0.945191
0.945186
0.945181
0.945176
0.945171
0.945167
0.945162
0.945158
0.945154
0.94515
0.945146
0.945142
0.945139
0.945135
0.945132
0.945128
0.945125
0.945122
0.944837
0.94484
0.944842
0.944845
0.944848
0.944851
0.944854
0.944857
0.94486
0.944864
0.944867
0.944871
0.944875
0.944879
0.944883
0.944887
0.944892
0.944896
0.944901
0.944906
0.94491
0.944915
0.94492
0.944925
0.94493
0.944935
0.94494
0.944945
0.944949
0.944954
0.944958
0.944962
0.944965
0.944968
0.944971
0.944973
0.944975
0.944977
0.944978
0.944978
0.944978
0.944978
0.944977
0.944975
0.944973
0.944971
0.944968
0.944965
0.944962
0.944958
0.944954
0.944949
0.944945
0.94494
0.944935
0.94493
0.944925
0.94492
0.944915
0.94491
0.944906
0.944901
0.944896
0.944892
0.944887
0.944883
0.944879
0.944875
0.944871
0.944867
0.944864
0.94486
0.944857
0.944854
0.944851
0.944848
0.944845
0.944842
0.94484
0.944837
0.944552
0.944554
0.944556
0.944558
0.944561
0.944563
0.944566
0.944568
0.944571
0.944574
0.944577
0.94458
0.944583
0.944587
0.94459
0.944594
0.944598
0.944602
0.944606
0.94461
0.944614
0.944619
0.944623
0.944627
0.944632
0.944636
0.94464
0.944644
0.944648
0.944652
0.944656
0.944659
0.944662
0.944665
0.944668
0.94467
0.944671
0.944673
0.944673
0.944674
0.944674
0.944673
0.944673
0.944671
0.94467
0.944668
0.944665
0.944662
0.944659
0.944656
0.944652
0.944648
0.944644
0.94464
0.944636
0.944632
0.944627
0.944623
0.944619
0.944614
0.94461
0.944606
0.944602
0.944598
0.944594
0.94459
0.944587
0.944583
0.94458
0.944577
0.944574
0.944571
0.944568
0.944566
0.944563
0.944561
0.944558
0.944556
0.944554
0.944552
0.944266
0.944267
0.944269
0.944271
0.944273
0.944275
0.944277
0.944279
0.944282
0.944284
0.944287
0.944289
0.944292
0.944295
0.944298
0.944301
0.944305
0.944308
0.944312
0.944315
0.944319
0.944323
0.944327
0.944331
0.944334
0.944338
0.944342
0.944345
0.944349
0.944352
0.944355
0.944358
0.944361
0.944364
0.944366
0.944368
0.944369
0.94437
0.944371
0.944371
0.944371
0.944371
0.94437
0.944369
0.944368
0.944366
0.944364
0.944361
0.944358
0.944355
0.944352
0.944349
0.944345
0.944342
0.944338
0.944334
0.944331
0.944327
0.944323
0.944319
0.944315
0.944312
0.944308
0.944305
0.944301
0.944298
0.944295
0.944292
0.944289
0.944287
0.944284
0.944282
0.944279
0.944277
0.944275
0.944273
0.944271
0.944269
0.944267
0.944266
0.943979
0.94398
0.943982
0.943983
0.943985
0.943986
0.943988
0.94399
0.943992
0.943994
0.943996
0.943999
0.944001
0.944004
0.944006
0.944009
0.944012
0.944015