/*--------------------------------*- C++ -*----------------------------------*\
  =========                 |
  \\      /  F ield         | OpenFOAM: The Open Source CFD Toolbox
   \\    /   O peration     | Website:  https://openfoam.org
    \\  /    A nd           | Version:  11
     \\/     M anipulation  |
\*---------------------------------------------------------------------------*/
FoamFile
{
    format      ascii;
    class       volScalarField;
    location    "345";
    object      p;
}
// * * * * * * * * * * * * * * * * * * * * * * * * * * * * * * * * * * * * * //

dimensions      [0 2 -2 0 0 0 0];

internalField   nonuniform List<scalar> 
332800
(
5.41526
5.37208
5.34179
5.32446
5.31306
5.30473
5.29852
5.29387
5.29034
5.28761
5.28546
5.28374
5.28234
5.28119
5.28022
5.2794
5.2787
5.2781
5.27757
5.27711
5.27671
5.27635
5.27603
5.27575
5.2755
5.27528
5.27508
5.2749
5.27474
5.27461
5.27448
5.27438
5.27428
5.2742
5.27414
5.27408
5.27404
5.27401
5.27399
5.27398
5.27398
5.27399
5.27401
5.27404
5.27408
5.27414
5.2742
5.27428
5.27438
5.27448
5.27461
5.27474
5.2749
5.27508
5.27528
5.2755
5.27575
5.27603
5.27635
5.27671
5.27711
5.27757
5.2781
5.2787
5.2794
5.28022
5.28119
5.28234
5.28374
5.28546
5.28761
5.29034
5.29387
5.29852
5.30473
5.31306
5.32446
5.34179
5.37208
5.41526
5.31851
5.31591
5.31182
5.30726
5.30283
5.2988
5.29527
5.29225
5.28969
5.28753
5.2857
5.28415
5.28283
5.28171
5.28074
5.2799
5.27918
5.27854
5.27799
5.2775
5.27707
5.27668
5.27634
5.27604
5.27577
5.27553
5.27532
5.27512
5.27496
5.27481
5.27467
5.27456
5.27446
5.27437
5.2743
5.27424
5.2742
5.27416
5.27414
5.27413
5.27413
5.27414
5.27416
5.2742
5.27424
5.2743
5.27437
5.27446
5.27456
5.27467
5.27481
5.27496
5.27512
5.27532
5.27553
5.27577
5.27604
5.27634
5.27668
5.27707
5.2775
5.27799
5.27854
5.27918
5.2799
5.28074
5.28171
5.28283
5.28415
5.2857
5.28753
5.28969
5.29225
5.29527
5.2988
5.30283
5.30726
5.31182
5.31591
5.31851
5.29473
5.29681
5.29787
5.29713
5.2955
5.29358
5.29161
5.28972
5.28797
5.28638
5.28495
5.28369
5.28257
5.28158
5.2807
5.27993
5.27925
5.27864
5.27811
5.27763
5.2772
5.27682
5.27648
5.27618
5.2759
5.27566
5.27544
5.27525
5.27508
5.27492
5.27479
5.27467
5.27457
5.27448
5.27441
5.27434
5.2743
5.27426
5.27424
5.27423
5.27423
5.27424
5.27426
5.2743
5.27434
5.27441
5.27448
5.27457
5.27467
5.27479
5.27492
5.27508
5.27525
5.27544
5.27566
5.2759
5.27618
5.27648
5.27682
5.2772
5.27763
5.27811
5.27864
5.27925
5.27993
5.2807
5.28158
5.28257
5.28369
5.28495
5.28638
5.28797
5.28972
5.29161
5.29358
5.2955
5.29713
5.29787
5.29681
5.29473
5.28598
5.28795
5.28942
5.28975
5.28937
5.28862
5.28767
5.28663
5.28556
5.28451
5.28352
5.28259
5.28173
5.28094
5.28022
5.27957
5.27898
5.27844
5.27796
5.27753
5.27713
5.27678
5.27646
5.27617
5.27591
5.27567
5.27546
5.27528
5.27511
5.27496
5.27482
5.27471
5.27461
5.27452
5.27445
5.27439
5.27434
5.27431
5.27428
5.27427
5.27427
5.27428
5.27431
5.27434
5.27439
5.27445
5.27452
5.27461
5.27471
5.27482
5.27496
5.27511
5.27528
5.27546
5.27567
5.27591
5.27617
5.27646
5.27678
5.27713
5.27753
5.27796
5.27844
5.27898
5.27957
5.28022
5.28094
5.28173
5.28259
5.28352
5.28451
5.28556
5.28663
5.28767
5.28862
5.28937
5.28975
5.28942
5.28795
5.28598
5.28114
5.28266
5.28396
5.28461
5.28478
5.28463
5.28427
5.28377
5.28318
5.28255
5.2819
5.28126
5.28064
5.28005
5.27949
5.27897
5.27849
5.27804
5.27763
5.27726
5.27691
5.2766
5.27631
5.27605
5.27581
5.27559
5.2754
5.27522
5.27506
5.27492
5.2748
5.27469
5.27459
5.27451
5.27444
5.27438
5.27433
5.2743
5.27428
5.27427
5.27427
5.27428
5.2743
5.27433
5.27438
5.27444
5.27451
5.27459
5.27469
5.2748
5.27492
5.27506
5.27522
5.2754
5.27559
5.27581
5.27605
5.27631
5.2766
5.27691
5.27726
5.27763
5.27804
5.27849
5.27897
5.27949
5.28005
5.28064
5.28126
5.2819
5.28255
5.28318
5.28377
5.28427
5.28463
5.28478
5.28461
5.28396
5.28266
5.28114
5.2783
5.27942
5.28046
5.28112
5.28147
5.28159
5.28153
5.28133
5.28105
5.28069
5.2803
5.27988
5.27946
5.27904
5.27863
5.27824
5.27786
5.2775
5.27717
5.27686
5.27657
5.2763
5.27605
5.27582
5.27562
5.27542
5.27525
5.27509
5.27495
5.27482
5.2747
5.2746
5.27451
5.27444
5.27437
5.27432
5.27428
5.27425
5.27423
5.27421
5.27421
5.27423
5.27425
5.27428
5.27432
5.27437
5.27444
5.27451
5.2746
5.2747
5.27482
5.27495
5.27509
5.27525
5.27542
5.27562
5.27582
5.27605
5.2763
5.27657
5.27686
5.27717
5.2775
5.27786
5.27824
5.27863
5.27904
5.27946
5.27988
5.2803
5.28069
5.28105
5.28133
5.28153
5.28159
5.28147
5.28112
5.28046
5.27942
5.2783
5.27643
5.27726
5.27807
5.27865
5.27903
5.27925
5.27933
5.27931
5.2792
5.27903
5.27881
5.27856
5.27829
5.278
5.27772
5.27743
5.27715
5.27688
5.27662
5.27637
5.27614
5.27592
5.27571
5.27552
5.27534
5.27518
5.27503
5.27489
5.27477
5.27465
5.27455
5.27446
5.27438
5.27431
5.27426
5.27421
5.27417
5.27414
5.27412
5.27411
5.27411
5.27412
5.27414
5.27417
5.27421
5.27426
5.27431
5.27438
5.27446
5.27455
5.27465
5.27477
5.27489
5.27503
5.27518
5.27534
5.27552
5.27571
5.27592
5.27614
5.27637
5.27662
5.27688
5.27715
5.27743
5.27772
5.278
5.27829
5.27856
5.27881
5.27903
5.2792
5.27931
5.27933
5.27925
5.27903
5.27865
5.27807
5.27726
5.27643
5.27507
5.2757
5.27634
5.27683
5.27718
5.27743
5.27758
5.27765
5.27765
5.27759
5.27748
5.27734
5.27718
5.277
5.27681
5.27661
5.27641
5.27621
5.27601
5.27583
5.27564
5.27547
5.27531
5.27515
5.27501
5.27487
5.27475
5.27463
5.27453
5.27443
5.27434
5.27427
5.2742
5.27414
5.27409
5.27405
5.27401
5.27399
5.27397
5.27397
5.27397
5.27397
5.27399
5.27401
5.27405
5.27409
5.27414
5.2742
5.27427
5.27434
5.27443
5.27453
5.27463
5.27475
5.27487
5.27501
5.27515
5.27531
5.27547
5.27564
5.27583
5.27601
5.27621
5.27641
5.27661
5.27681
5.277
5.27718
5.27734
5.27748
5.27759
5.27765
5.27765
5.27758
5.27743
5.27718
5.27683
5.27634
5.2757
5.27507
5.27403
5.27452
5.27503
5.27544
5.27575
5.276
5.27617
5.27628
5.27633
5.27634
5.27631
5.27624
5.27616
5.27605
5.27593
5.2758
5.27567
5.27553
5.27539
5.27525
5.27512
5.27499
5.27486
5.27474
5.27463
5.27452
5.27442
5.27432
5.27424
5.27416
5.27409
5.27403
5.27397
5.27392
5.27388
5.27384
5.27381
5.27379
5.27378
5.27377
5.27377
5.27378
5.27379
5.27381
5.27384
5.27388
5.27392
5.27397
5.27403
5.27409
5.27416
5.27424
5.27432
5.27442
5.27452
5.27463
5.27474
5.27486
5.27499
5.27512
5.27525
5.27539
5.27553
5.27567
5.2758
5.27593
5.27605
5.27616
5.27624
5.27631
5.27634
5.27633
5.27628
5.27617
5.276
5.27575
5.27544
5.27503
5.27452
5.27403
5.27321
5.2736
5.274
5.27434
5.27462
5.27484
5.27501
5.27514
5.27522
5.27526
5.27528
5.27526
5.27523
5.27518
5.27511
5.27503
5.27495
5.27486
5.27476
5.27467
5.27457
5.27448
5.27438
5.27429
5.27421
5.27413
5.27405
5.27398
5.27391
5.27385
5.27379
5.27374
5.2737
5.27366
5.27363
5.2736
5.27357
5.27356
5.27355
5.27354
5.27354
5.27355
5.27356
5.27357
5.2736
5.27363
5.27366
5.2737
5.27374
5.27379
5.27385
5.27391
5.27398
5.27405
5.27413
5.27421
5.27429
5.27438
5.27448
5.27457
5.27467
5.27476
5.27486
5.27495
5.27503
5.27511
5.27518
5.27523
5.27526
5.27528
5.27526
5.27522
5.27514
5.27501
5.27484
5.27462
5.27434
5.274
5.2736
5.27321
5.27252
5.27283
5.27317
5.27345
5.27369
5.27389
5.27405
5.27417
5.27427
5.27434
5.27438
5.27439
5.27439
5.27438
5.27435
5.27431
5.27426
5.2742
5.27415
5.27408
5.27402
5.27396
5.27389
5.27383
5.27377
5.27371
5.27366
5.2736
5.27355
5.27351
5.27347
5.27343
5.27339
5.27336
5.27334
5.27332
5.2733
5.27329
5.27328
5.27327
5.27327
5.27328
5.27329
5.2733
5.27332
5.27334
5.27336
5.27339
5.27343
5.27347
5.27351
5.27355
5.2736
5.27366
5.27371
5.27377
5.27383
5.27389
5.27396
5.27402
5.27408
5.27415
5.2742
5.27426
5.27431
5.27435
5.27438
5.27439
5.27439
5.27438
5.27434
5.27427
5.27417
5.27405
5.27389
5.27369
5.27345
5.27317
5.27283
5.27252
5.27194
5.27219
5.27247
5.2727
5.27291
5.27308
5.27323
5.27335
5.27345
5.27353
5.27358
5.27362
5.27364
5.27365
5.27364
5.27363
5.27361
5.27358
5.27355
5.27352
5.27348
5.27344
5.2734
5.27336
5.27332
5.27328
5.27324
5.27321
5.27317
5.27314
5.27311
5.27308
5.27306
5.27304
5.27302
5.27301
5.27299
5.27298
5.27298
5.27297
5.27297
5.27298
5.27298
5.27299
5.27301
5.27302
5.27304
5.27306
5.27308
5.27311
5.27314
5.27317
5.27321
5.27324
5.27328
5.27332
5.27336
5.2734
5.27344
5.27348
5.27352
5.27355
5.27358
5.27361
5.27363
5.27364
5.27365
5.27364
5.27362
5.27358
5.27353
5.27345
5.27335
5.27323
5.27308
5.27291
5.2727
5.27247
5.27219
5.27194
5.27143
5.27164
5.27187
5.27207
5.27224
5.27239
5.27253
5.27264
5.27274
5.27281
5.27287
5.27292
5.27296
5.27298
5.27299
5.273
5.273
5.27299
5.27298
5.27297
5.27295
5.27293
5.27291
5.27289
5.27286
5.27284
5.27282
5.2728
5.27278
5.27276
5.27274
5.27272
5.27271
5.27269
5.27268
5.27267
5.27266
5.27266
5.27265
5.27265
5.27265
5.27265
5.27266
5.27266
5.27267
5.27268
5.27269
5.27271
5.27272
5.27274
5.27276
5.27278
5.2728
5.27282
5.27284
5.27286
5.27289
5.27291
5.27293
5.27295
5.27297
5.27298
5.27299
5.273
5.273
5.27299
5.27298
5.27296
5.27292
5.27287
5.27281
5.27274
5.27264
5.27253
5.27239
5.27224
5.27207
5.27187
5.27164
5.27143
5.27097
5.27115
5.27134
5.27151
5.27166
5.27179
5.27191
5.27201
5.2721
5.27218
5.27224
5.27229
5.27234
5.27237
5.27239
5.27241
5.27243
5.27243
5.27244
5.27244
5.27244
5.27243
5.27242
5.27242
5.27241
5.2724
5.27239
5.27238
5.27237
5.27236
5.27235
5.27234
5.27233
5.27233
5.27232
5.27232
5.27231
5.27231
5.27231
5.2723
5.2723
5.27231
5.27231
5.27231
5.27232
5.27232
5.27233
5.27233
5.27234
5.27235
5.27236
5.27237
5.27238
5.27239
5.2724
5.27241
5.27242
5.27242
5.27243
5.27244
5.27244
5.27244
5.27243
5.27243
5.27241
5.27239
5.27237
5.27234
5.27229
5.27224
5.27218
5.2721
5.27201
5.27191
5.27179
5.27166
5.27151
5.27134
5.27115
5.27097
5.27056
5.27071
5.27087
5.27101
5.27114
5.27126
5.27136
5.27145
5.27154
5.27161
5.27167
5.27172
5.27177
5.27181
5.27184
5.27187
5.27189
5.27191
5.27192
5.27193
5.27194
5.27195
5.27195
5.27196
5.27196
5.27196
5.27196
5.27196
5.27196
5.27196
5.27195
5.27195
5.27195
5.27195
5.27195
5.27195
5.27195
5.27195
5.27194
5.27194
5.27194
5.27194
5.27195
5.27195
5.27195
5.27195
5.27195
5.27195
5.27195
5.27195
5.27196
5.27196
5.27196
5.27196
5.27196
5.27196
5.27196
5.27195
5.27195
5.27194
5.27193
5.27192
5.27191
5.27189
5.27187
5.27184
5.27181
5.27177
5.27172
5.27167
5.27161
5.27154
5.27145
5.27136
5.27126
5.27114
5.27101
5.27087
5.27071
5.27056
5.27018
5.2703
5.27044
5.27056
5.27067
5.27077
5.27087
5.27095
5.27102
5.27109
5.27115
5.2712
5.27125
5.27129
5.27133
5.27136
5.27138
5.27141
5.27143
5.27145
5.27147
5.27148
5.27149
5.2715
5.27151
5.27152
5.27153
5.27154
5.27154
5.27155
5.27155
5.27156
5.27156
5.27156
5.27157
5.27157
5.27157
5.27157
5.27157
5.27157
5.27157
5.27157
5.27157
5.27157
5.27157
5.27157
5.27156
5.27156
5.27156
5.27155
5.27155
5.27154
5.27154
5.27153
5.27152
5.27151
5.2715
5.27149
5.27148
5.27147
5.27145
5.27143
5.27141
5.27138
5.27136
5.27133
5.27129
5.27125
5.2712
5.27115
5.27109
5.27102
5.27095
5.27087
5.27077
5.27067
5.27056
5.27044
5.2703
5.27018
5.26982
5.26993
5.27004
5.27015
5.27024
5.27033
5.27041
5.27049
5.27055
5.27061
5.27067
5.27072
5.27077
5.27081
5.27084
5.27088
5.27091
5.27094
5.27096
5.27099
5.27101
5.27103
5.27105
5.27106
5.27108
5.27109
5.27111
5.27112
5.27113
5.27114
5.27115
5.27116
5.27117
5.27117
5.27118
5.27118
5.27119
5.27119
5.27119
5.27119
5.27119
5.27119
5.27119
5.27119
5.27118
5.27118
5.27117
5.27117
5.27116
5.27115
5.27114
5.27113
5.27112
5.27111
5.27109
5.27108
5.27106
5.27105
5.27103
5.27101
5.27099
5.27096
5.27094
5.27091
5.27088
5.27084
5.27081
5.27077
5.27072
5.27067
5.27061
5.27055
5.27049
5.27041
5.27033
5.27024
5.27015
5.27004
5.26993
5.26982
5.26949
5.26958
5.26967
5.26976
5.26984
5.26992
5.26999
5.27006
5.27012
5.27017
5.27022
5.27027
5.27032
5.27036
5.27039
5.27043
5.27046
5.27049
5.27052
5.27054
5.27057
5.27059
5.27062
5.27064
5.27066
5.27067
5.27069
5.27071
5.27072
5.27074
5.27075
5.27076
5.27077
5.27078
5.27079
5.2708
5.2708
5.27081
5.27081
5.27081
5.27081
5.27081
5.27081
5.2708
5.2708
5.27079
5.27078
5.27077
5.27076
5.27075
5.27074
5.27072
5.27071
5.27069
5.27067
5.27066
5.27064
5.27062
5.27059
5.27057
5.27054
5.27052
5.27049
5.27046
5.27043
5.27039
5.27036
5.27032
5.27027
5.27022
5.27017
5.27012
5.27006
5.26999
5.26992
5.26984
5.26976
5.26967
5.26958
5.26949
5.26917
5.26924
5.26932
5.2694
5.26947
5.26954
5.2696
5.26966
5.26971
5.26976
5.26981
5.26985
5.26989
5.26993
5.26997
5.27
5.27003
5.27006
5.27009
5.27012
5.27015
5.27017
5.2702
5.27022
5.27024
5.27026
5.27029
5.2703
5.27032
5.27034
5.27035
5.27037
5.27038
5.27039
5.2704
5.27041
5.27041
5.27042
5.27042
5.27042
5.27042
5.27042
5.27042
5.27041
5.27041
5.2704
5.27039
5.27038
5.27037
5.27035
5.27034
5.27032
5.2703
5.27029
5.27026
5.27024
5.27022
5.2702
5.27017
5.27015
5.27012
5.27009
5.27006
5.27003
5.27
5.26997
5.26993
5.26989
5.26985
5.26981
5.26976
5.26971
5.26966
5.2696
5.26954
5.26947
5.2694
5.26932
5.26924
5.26917
5.26885
5.26892
5.26899
5.26905
5.26911
5.26917
5.26923
5.26928
5.26933
5.26937
5.26941
5.26945
5.26949
5.26953
5.26956
5.26959
5.26963
5.26966
5.26969
5.26971
5.26974
5.26977
5.26979
5.26982
5.26984
5.26986
5.26989
5.26991
5.26993
5.26994
5.26996
5.26998
5.26999
5.27
5.27001
5.27002
5.27003
5.27003
5.27004
5.27004
5.27004
5.27004
5.27003
5.27003
5.27002
5.27001
5.27
5.26999
5.26998
5.26996
5.26994
5.26993
5.26991
5.26989
5.26986
5.26984
5.26982
5.26979
5.26977
5.26974
5.26971
5.26969
5.26966
5.26963
5.26959
5.26956
5.26953
5.26949
5.26945
5.26941
5.26937
5.26933
5.26928
5.26923
5.26917
5.26911
5.26905
5.26899
5.26892
5.26885
5.26855
5.26861
5.26867
5.26872
5.26878
5.26882
5.26887
5.26892
5.26896
5.269
5.26904
5.26907
5.26911
5.26914
5.26918
5.26921
5.26924
5.26927
5.26929
5.26932
5.26935
5.26938
5.2694
5.26943
5.26945
5.26947
5.2695
5.26952
5.26954
5.26956
5.26957
5.26959
5.26961
5.26962
5.26963
5.26964
5.26965
5.26965
5.26966
5.26966
5.26966
5.26966
5.26965
5.26965
5.26964
5.26963
5.26962
5.26961
5.26959
5.26957
5.26956
5.26954
5.26952
5.2695
5.26947
5.26945
5.26943
5.2694
5.26938
5.26935
5.26932
5.26929
5.26927
5.26924
5.26921
5.26918
5.26914
5.26911
5.26907
5.26904
5.269
5.26896
5.26892
5.26887
5.26882
5.26878
5.26872
5.26867
5.26861
5.26855
5.26826
5.2683
5.26835
5.2684
5.26845
5.26849
5.26853
5.26857
5.26861
5.26864
5.26868
5.26871
5.26874
5.26877
5.2688
5.26883
5.26886
5.26889
5.26892
5.26894
5.26897
5.269
5.26902
5.26905
5.26907
5.26909
5.26912
5.26914
5.26916
5.26918
5.26919
5.26921
5.26923
5.26924
5.26925
5.26926
5.26927
5.26927
5.26928
5.26928
5.26928
5.26928
5.26927
5.26927
5.26926
5.26925
5.26924
5.26923
5.26921
5.26919
5.26918
5.26916
5.26914
5.26912
5.26909
5.26907
5.26905
5.26902
5.269
5.26897
5.26894
5.26892
5.26889
5.26886
5.26883
5.2688
5.26877
5.26874
5.26871
5.26868
5.26864
5.26861
5.26857
5.26853
5.26849
5.26845
5.2684
5.26835
5.2683
5.26826
5.26797
5.268
5.26805
5.26809
5.26813
5.26817
5.2682
5.26824
5.26827
5.2683
5.26833
5.26836
5.26839
5.26842
5.26845
5.26847
5.2685
5.26853
5.26855
5.26858
5.2686
5.26863
5.26865
5.26868
5.2687
5.26872
5.26874
5.26877
5.26879
5.2688
5.26882
5.26884
5.26885
5.26887
5.26888
5.26889
5.26889
5.2689
5.2689
5.26891
5.26891
5.2689
5.2689
5.26889
5.26889
5.26888
5.26887
5.26885
5.26884
5.26882
5.2688
5.26879
5.26877
5.26874
5.26872
5.2687
5.26868
5.26865
5.26863
5.2686
5.26858
5.26855
5.26853
5.2685
5.26847
5.26845
5.26842
5.26839
5.26836
5.26833
5.2683
5.26827
5.26824
5.2682
5.26817
5.26813
5.26809
5.26805
5.268
5.26797
5.26768
5.26771
5.26775
5.26779
5.26782
5.26785
5.26788
5.26791
5.26794
5.26797
5.268
5.26802
5.26805
5.26807
5.2681
5.26812
5.26815
5.26817
5.2682
5.26822
5.26825
5.26827
5.26829
5.26832
5.26834
5.26836
5.26838
5.2684
5.26842
5.26844
5.26846
5.26847
5.26849
5.2685
5.26851
5.26852
5.26853
5.26853
5.26854
5.26854
5.26854
5.26854
5.26853
5.26853
5.26852
5.26851
5.2685
5.26849
5.26847
5.26846
5.26844
5.26842
5.2684
5.26838
5.26836
5.26834
5.26832
5.26829
5.26827
5.26825
5.26822
5.2682
5.26817
5.26815
5.26812
5.2681
5.26807
5.26805
5.26802
5.268
5.26797
5.26794
5.26791
5.26788
5.26785
5.26782
5.26779
5.26775
5.26771
5.26768
5.26739
5.26742
5.26746
5.26749
5.26751
5.26754
5.26757
5.2676
5.26762
5.26765
5.26767
5.26769
5.26772
5.26774
5.26776
5.26779
5.26781
5.26783
5.26785
5.26788
5.2679
5.26792
5.26794
5.26796
5.26798
5.268
5.26802
5.26804
5.26806
5.26808
5.2681
5.26811
5.26812
5.26814
5.26815
5.26816
5.26816
5.26817
5.26817
5.26818
5.26818
5.26817
5.26817
5.26816
5.26816
5.26815
5.26814
5.26812
5.26811
5.2681
5.26808
5.26806
5.26804
5.26802
5.268
5.26798
5.26796
5.26794
5.26792
5.2679
5.26788
5.26785
5.26783
5.26781
5.26779
5.26776
5.26774
5.26772
5.26769
5.26767
5.26765
5.26762
5.2676
5.26757
5.26754
5.26751
5.26749
5.26746
5.26742
5.26739
5.26711
5.26714
5.26716
5.26719
5.26721
5.26724
5.26726
5.26728
5.26731
5.26733
5.26735
5.26737
5.26739
5.26741
5.26743
5.26745
5.26747
5.2675
5.26752
5.26754
5.26756
5.26758
5.2676
5.26762
5.26764
5.26766
5.26768
5.26769
5.26771
5.26773
5.26774
5.26776
5.26777
5.26778
5.26779
5.2678
5.26781
5.26781
5.26782
5.26782
5.26782
5.26782
5.26781
5.26781
5.2678
5.26779
5.26778
5.26777
5.26776
5.26774
5.26773
5.26771
5.26769
5.26768
5.26766
5.26764
5.26762
5.2676
5.26758
5.26756
5.26754
5.26752
5.2675
5.26747
5.26745
5.26743
5.26741
5.26739
5.26737
5.26735
5.26733
5.26731
5.26728
5.26726
5.26724
5.26721
5.26719
5.26716
5.26714
5.26711
5.26683
5.26685
5.26687
5.2669
5.26692
5.26694
5.26696
5.26698
5.267
5.26702
5.26704
5.26706
5.26707
5.26709
5.26711
5.26713
5.26715
5.26717
5.26719
5.2672
5.26722
5.26724
5.26726
5.26728
5.2673
5.26732
5.26733
5.26735
5.26737
5.26738
5.2674
5.26741
5.26742
5.26743
5.26744
5.26745
5.26746
5.26746
5.26747
5.26747
5.26747
5.26747
5.26746
5.26746
5.26745
5.26744
5.26743
5.26742
5.26741
5.2674
5.26738
5.26737
5.26735
5.26733
5.26732
5.2673
5.26728
5.26726
5.26724
5.26722
5.2672
5.26719
5.26717
5.26715
5.26713
5.26711
5.26709
5.26707
5.26706
5.26704
5.26702
5.267
5.26698
5.26696
5.26694
5.26692
5.2669
5.26687
5.26685
5.26683
5.26655
5.26657
5.26659
5.26661
5.26662
5.26664
5.26666
5.26668
5.26669
5.26671
5.26673
5.26674
5.26676
5.26678
5.26679
5.26681
5.26683
5.26684
5.26686
5.26688
5.2669
5.26691
5.26693
5.26695
5.26696
5.26698
5.267
5.26701
5.26703
5.26704
5.26706
5.26707
5.26708
5.26709
5.2671
5.26711
5.26711
5.26712
5.26712
5.26712
5.26712
5.26712
5.26712
5.26711
5.26711
5.2671
5.26709
5.26708
5.26707
5.26706
5.26704
5.26703
5.26701
5.267
5.26698
5.26696
5.26695
5.26693
5.26691
5.2669
5.26688
5.26686
5.26684
5.26683
5.26681
5.26679
5.26678
5.26676
5.26674
5.26673
5.26671
5.26669
5.26668
5.26666
5.26664
5.26662
5.26661
5.26659
5.26657
5.26655
5.26627
5.26629
5.2663
5.26632
5.26633
5.26635
5.26636
5.26638
5.26639
5.26641
5.26642
5.26644
5.26645
5.26647
5.26648
5.2665
5.26651
5.26653
5.26654
5.26656
5.26657
5.26659
5.26661
5.26662
5.26664
5.26665
5.26667
5.26668
5.26669
5.26671
5.26672
5.26673
5.26674
5.26675
5.26676
5.26677
5.26677
5.26678
5.26678
5.26678
5.26678
5.26678
5.26678
5.26677
5.26677
5.26676
5.26675
5.26674
5.26673
5.26672
5.26671
5.26669
5.26668
5.26667
5.26665
5.26664
5.26662
5.26661
5.26659
5.26657
5.26656
5.26654
5.26653
5.26651
5.2665
5.26648
5.26647
5.26645
5.26644
5.26642
5.26641
5.26639
5.26638
5.26636
5.26635
5.26633
5.26632
5.2663
5.26629
5.26627
5.26599
5.266
5.26602
5.26603
5.26604
5.26606
5.26607
5.26608
5.2661
5.26611
5.26612
5.26613
5.26615
5.26616
5.26617
5.26619
5.2662
5.26621
5.26623
5.26624
5.26626
5.26627
5.26628
5.2663
5.26631
5.26633
5.26634
5.26635
5.26637
5.26638
5.26639
5.2664
5.26641
5.26642
5.26643
5.26643
5.26644
5.26644
5.26644
5.26644
5.26644
5.26644
5.26644
5.26644
5.26643
5.26643
5.26642
5.26641
5.2664
5.26639
5.26638
5.26637
5.26635
5.26634
5.26633
5.26631
5.2663
5.26628
5.26627
5.26626
5.26624
5.26623
5.26621
5.2662
5.26619
5.26617
5.26616
5.26615
5.26613
5.26612
5.26611
5.2661
5.26608
5.26607
5.26606
5.26604
5.26603
5.26602
5.266
5.26599
5.26571
5.26572
5.26573
5.26574
5.26576
5.26577
5.26578
5.26579
5.2658
5.26581
5.26582
5.26583
5.26585
5.26586
5.26587
5.26588
5.26589
5.26591
5.26592
5.26593
5.26594
5.26596
5.26597
5.26598
5.26599
5.26601
5.26602
5.26603
5.26604
5.26605
5.26606
5.26607
5.26608
5.26609
5.2661
5.2661
5.26611
5.26611
5.26611
5.26611
5.26611
5.26611
5.26611
5.26611
5.2661
5.2661
5.26609
5.26608
5.26607
5.26606
5.26605
5.26604
5.26603
5.26602
5.26601
5.26599
5.26598
5.26597
5.26596
5.26594
5.26593
5.26592
5.26591
5.26589
5.26588
5.26587
5.26586
5.26585
5.26583
5.26582
5.26581
5.2658
5.26579
5.26578
5.26577
5.26576
5.26574
5.26573
5.26572
5.26571
5.26543
5.26544
5.26545
5.26546
5.26547
5.26548
5.26549
5.2655
5.26551
5.26552
5.26553
5.26554
5.26555
5.26556
5.26557
5.26558
5.26559
5.2656
5.26561
5.26562
5.26563
5.26564
5.26566
5.26567
5.26568
5.26569
5.2657
5.26571
5.26572
5.26573
5.26574
5.26575
5.26576
5.26576
5.26577
5.26578
5.26578
5.26578
5.26579
5.26579
5.26579
5.26579
5.26578
5.26578
5.26578
5.26577
5.26576
5.26576
5.26575
5.26574
5.26573
5.26572
5.26571
5.2657
5.26569
5.26568
5.26567
5.26566
5.26564
5.26563
5.26562
5.26561
5.2656
5.26559
5.26558
5.26557
5.26556
5.26555
5.26554
5.26553
5.26552
5.26551
5.2655
5.26549
5.26548
5.26547
5.26546
5.26545
5.26544
5.26543
5.26515
5.26516
5.26516
5.26517
5.26518
5.26519
5.2652
5.26521
5.26521
5.26522
5.26523
5.26524
5.26525
5.26526
5.26527
5.26528
5.26529
5.2653
5.26531
5.26532
5.26533
5.26534
5.26535
5.26536
5.26537
5.26538
5.26539
5.2654
5.26541
5.26541
5.26542
5.26543
5.26544
5.26544
5.26545
5.26545
5.26546
5.26546
5.26546
5.26546
5.26546
5.26546
5.26546
5.26546
5.26545
5.26545
5.26544
5.26544
5.26543
5.26542
5.26541
5.26541
5.2654
5.26539
5.26538
5.26537
5.26536
5.26535
5.26534
5.26533
5.26532
5.26531
5.2653
5.26529
5.26528
5.26527
5.26526
5.26525
5.26524
5.26523
5.26522
5.26521
5.26521
5.2652
5.26519
5.26518
5.26517
5.26516
5.26516
5.26515
5.26487
5.26487
5.26488
5.26489
5.26489
5.2649
5.26491
5.26492
5.26492
5.26493
5.26494
5.26495
5.26495
5.26496
5.26497
5.26498
5.26499
5.26499
5.265
5.26501
5.26502
5.26503
5.26504
5.26505
5.26506
5.26507
5.26508
5.26508
5.26509
5.2651
5.26511
5.26511
5.26512
5.26513
5.26513
5.26514
5.26514
5.26514
5.26514
5.26514
5.26514
5.26514
5.26514
5.26514
5.26514
5.26513
5.26513
5.26512
5.26511
5.26511
5.2651
5.26509
5.26508
5.26508
5.26507
5.26506
5.26505
5.26504
5.26503
5.26502
5.26501
5.265
5.26499
5.26499
5.26498
5.26497
5.26496
5.26495
5.26495
5.26494
5.26493
5.26492
5.26492
5.26491
5.2649
5.26489
5.26489
5.26488
5.26487
5.26487
5.26459
5.26459
5.2646
5.2646
5.26461
5.26461
5.26462
5.26463
5.26463
5.26464
5.26464
5.26465
5.26466
5.26466
5.26467
5.26468
5.26469
5.26469
5.2647
5.26471
5.26472
5.26473
5.26473
5.26474
5.26475
5.26476
5.26477
5.26477
5.26478
5.26479
5.2648
5.2648
5.26481
5.26481
5.26482
5.26482
5.26482
5.26483
5.26483
5.26483
5.26483
5.26483
5.26483
5.26482
5.26482
5.26482
5.26481
5.26481
5.2648
5.2648
5.26479
5.26478
5.26477
5.26477
5.26476
5.26475
5.26474
5.26473
5.26473
5.26472
5.26471
5.2647
5.26469
5.26469
5.26468
5.26467
5.26466
5.26466
5.26465
5.26464
5.26464
5.26463
5.26463
5.26462
5.26461
5.26461
5.2646
5.2646
5.26459
5.26459
5.2643
5.26431
5.26431
5.26432
5.26432
5.26433
5.26433
5.26434
5.26434
5.26435
5.26435
5.26436
5.26436
5.26437
5.26438
5.26438
5.26439
5.2644
5.2644
5.26441
5.26442
5.26442
5.26443
5.26444
5.26445
5.26445
5.26446
5.26447
5.26447
5.26448
5.26449
5.26449
5.2645
5.2645
5.26451
5.26451
5.26451
5.26451
5.26451
5.26452
5.26452
5.26451
5.26451
5.26451
5.26451
5.26451
5.2645
5.2645
5.26449
5.26449
5.26448
5.26447
5.26447
5.26446
5.26445
5.26445
5.26444
5.26443
5.26442
5.26442
5.26441
5.2644
5.2644
5.26439
5.26438
5.26438
5.26437
5.26436
5.26436
5.26435
5.26435
5.26434
5.26434
5.26433
5.26433
5.26432
5.26432
5.26431
5.26431
5.2643
5.26402
5.26402
5.26403
5.26403
5.26403
5.26404
5.26404
5.26405
5.26405
5.26406
5.26406
5.26407
5.26407
5.26408
5.26408
5.26409
5.26409
5.2641
5.26411
5.26411
5.26412
5.26412
5.26413
5.26414
5.26414
5.26415
5.26416
5.26416
5.26417
5.26417
5.26418
5.26418
5.26419
5.26419
5.2642
5.2642
5.2642
5.2642
5.2642
5.2642
5.2642
5.2642
5.2642
5.2642
5.2642
5.2642
5.26419
5.26419
5.26418
5.26418
5.26417
5.26417
5.26416
5.26416
5.26415
5.26414
5.26414
5.26413
5.26412
5.26412
5.26411
5.26411
5.2641
5.26409
5.26409
5.26408
5.26408
5.26407
5.26407
5.26406
5.26406
5.26405
5.26405
5.26404
5.26404
5.26403
5.26403
5.26403
5.26402
5.26402
5.26373
5.26374
5.26374
5.26374
5.26375
5.26375
5.26375
5.26376
5.26376
5.26377
5.26377
5.26377
5.26378
5.26378
5.26379
5.26379
5.2638
5.2638
5.26381
5.26381
5.26382
5.26383
5.26383
5.26384
5.26384
5.26385
5.26385
5.26386
5.26386
5.26387
5.26387
5.26388
5.26388
5.26389
5.26389
5.26389
5.26389
5.2639
5.2639
5.2639
5.2639
5.2639
5.2639
5.26389
5.26389
5.26389
5.26389
5.26388
5.26388
5.26387
5.26387
5.26386
5.26386
5.26385
5.26385
5.26384
5.26384
5.26383
5.26383
5.26382
5.26381
5.26381
5.2638
5.2638
5.26379
5.26379
5.26378
5.26378
5.26377
5.26377
5.26377
5.26376
5.26376
5.26375
5.26375
5.26375
5.26374
5.26374
5.26374
5.26373
5.26345
5.26345
5.26345
5.26346
5.26346
5.26346
5.26347
5.26347
5.26347
5.26348
5.26348
5.26348
5.26349
5.26349
5.2635
5.2635
5.2635
5.26351
5.26351
5.26352
5.26352
5.26353
5.26353
5.26354
5.26354
5.26355
5.26355
5.26356
5.26356
5.26357
5.26357
5.26357
5.26358
5.26358
5.26358
5.26359
5.26359
5.26359
5.26359
5.26359
5.26359
5.26359
5.26359
5.26359
5.26359
5.26358
5.26358
5.26358
5.26357
5.26357
5.26357
5.26356
5.26356
5.26355
5.26355
5.26354
5.26354
5.26353
5.26353
5.26352
5.26352
5.26351
5.26351
5.2635
5.2635
5.2635
5.26349
5.26349
5.26348
5.26348
5.26348
5.26347
5.26347
5.26347
5.26346
5.26346
5.26346
5.26345
5.26345
5.26345
5.26316
5.26317
5.26317
5.26317
5.26317
5.26318
5.26318
5.26318
5.26318
5.26319
5.26319
5.26319
5.2632
5.2632
5.2632
5.26321
5.26321
5.26321
5.26322
5.26322
5.26323
5.26323
5.26324
5.26324
5.26324
5.26325
5.26325
5.26326
5.26326
5.26326
5.26327
5.26327
5.26327
5.26328
5.26328
5.26328
5.26328
5.26329
5.26329
5.26329
5.26329
5.26329
5.26329
5.26328
5.26328
5.26328
5.26328
5.26327
5.26327
5.26327
5.26326
5.26326
5.26326
5.26325
5.26325
5.26324
5.26324
5.26324
5.26323
5.26323
5.26322
5.26322
5.26321
5.26321
5.26321
5.2632
5.2632
5.2632
5.26319
5.26319
5.26319
5.26318
5.26318
5.26318
5.26318
5.26317
5.26317
5.26317
5.26317
5.26316
5.26288
5.26288
5.26288
5.26288
5.26289
5.26289
5.26289
5.26289
5.26289
5.2629
5.2629
5.2629
5.2629
5.26291
5.26291
5.26291
5.26292
5.26292
5.26292
5.26293
5.26293
5.26294
5.26294
5.26294
5.26295
5.26295
5.26295
5.26296
5.26296
5.26296
5.26297
5.26297
5.26297
5.26298
5.26298
5.26298
5.26298
5.26298
5.26298
5.26298
5.26298
5.26298
5.26298
5.26298
5.26298
5.26298
5.26298
5.26297
5.26297
5.26297
5.26296
5.26296
5.26296
5.26295
5.26295
5.26295
5.26294
5.26294
5.26294
5.26293
5.26293
5.26292
5.26292
5.26292
5.26291
5.26291
5.26291
5.2629
5.2629
5.2629
5.2629
5.26289
5.26289
5.26289
5.26289
5.26289
5.26288
5.26288
5.26288
5.26288
5.26259
5.26259
5.26259
5.2626
5.2626
5.2626
5.2626
5.2626
5.2626
5.26261
5.26261
5.26261
5.26261
5.26262
5.26262
5.26262
5.26262
5.26263
5.26263
5.26263
5.26264
5.26264
5.26264
5.26265
5.26265
5.26265
5.26266
5.26266
5.26266
5.26267
5.26267
5.26267
5.26267
5.26268
5.26268
5.26268
5.26268
5.26268
5.26268
5.26268
5.26268
5.26268
5.26268
5.26268
5.26268
5.26268
5.26268
5.26267
5.26267
5.26267
5.26267
5.26266
5.26266
5.26266
5.26265
5.26265
5.26265
5.26264
5.26264
5.26264
5.26263
5.26263
5.26263
5.26262
5.26262
5.26262
5.26262
5.26261
5.26261
5.26261
5.26261
5.2626
5.2626
5.2626
5.2626
5.2626
5.2626
5.26259
5.26259
5.26259
5.2623
5.26231
5.26231
5.26231
5.26231
5.26231
5.26231
5.26231
5.26231
5.26232
5.26232
5.26232
5.26232
5.26232
5.26233
5.26233
5.26233
5.26233
5.26234
5.26234
5.26234
5.26235
5.26235
5.26235
5.26235
5.26236
5.26236
5.26236
5.26237
5.26237
5.26237
5.26237
5.26237
5.26238
5.26238
5.26238
5.26238
5.26238
5.26238
5.26238
5.26238
5.26238
5.26238
5.26238
5.26238
5.26238
5.26238
5.26237
5.26237
5.26237
5.26237
5.26237
5.26236
5.26236
5.26236
5.26235
5.26235
5.26235
5.26235
5.26234
5.26234
5.26234
5.26233
5.26233
5.26233
5.26233
5.26232
5.26232
5.26232
5.26232
5.26232
5.26231
5.26231
5.26231
5.26231
5.26231
5.26231
5.26231
5.26231
5.2623
5.26202
5.26202
5.26202
5.26202
5.26202
5.26202
5.26202
5.26202
5.26203
5.26203
5.26203
5.26203
5.26203
5.26203
5.26204
5.26204
5.26204
5.26204
5.26204
5.26205
5.26205
5.26205
5.26205
5.26206
5.26206
5.26206
5.26206
5.26207
5.26207
5.26207
5.26207
5.26208
5.26208
5.26208
5.26208
5.26208
5.26208
5.26208
5.26208
5.26208
5.26208
5.26208
5.26208
5.26208
5.26208
5.26208
5.26208
5.26208
5.26208
5.26207
5.26207
5.26207
5.26207
5.26206
5.26206
5.26206
5.26206
5.26205
5.26205
5.26205
5.26205
5.26204
5.26204
5.26204
5.26204
5.26204
5.26203
5.26203
5.26203
5.26203
5.26203
5.26203
5.26202
5.26202
5.26202
5.26202
5.26202
5.26202
5.26202
5.26202
5.26173
5.26173
5.26173
5.26173
5.26173
5.26173
5.26173
5.26173
5.26174
5.26174
5.26174
5.26174
5.26174
5.26174
5.26174
5.26175
5.26175
5.26175
5.26175
5.26175
5.26176
5.26176
5.26176
5.26176
5.26176
5.26177
5.26177
5.26177
5.26177
5.26177
5.26178
5.26178
5.26178
5.26178
5.26178
5.26178
5.26178
5.26179
5.26179
5.26179
5.26179
5.26179
5.26179
5.26178
5.26178
5.26178
5.26178
5.26178
5.26178
5.26178
5.26177
5.26177
5.26177
5.26177
5.26177
5.26176
5.26176
5.26176
5.26176
5.26176
5.26175
5.26175
5.26175
5.26175
5.26175
5.26174
5.26174
5.26174
5.26174
5.26174
5.26174
5.26174
5.26173
5.26173
5.26173
5.26173
5.26173
5.26173
5.26173
5.26173
5.26144
5.26144
5.26144
5.26144
5.26144
5.26144
5.26144
5.26144
5.26145
5.26145
5.26145
5.26145
5.26145
5.26145
5.26145
5.26145
5.26146
5.26146
5.26146
5.26146
5.26146
5.26146
5.26147
5.26147
5.26147
5.26147
5.26147
5.26148
5.26148
5.26148
5.26148
5.26148
5.26148
5.26148
5.26149
5.26149
5.26149
5.26149
5.26149
5.26149
5.26149
5.26149
5.26149
5.26149
5.26149
5.26149
5.26148
5.26148
5.26148
5.26148
5.26148
5.26148
5.26148
5.26147
5.26147
5.26147
5.26147
5.26147
5.26146
5.26146
5.26146
5.26146
5.26146
5.26146
5.26145
5.26145
5.26145
5.26145
5.26145
5.26145
5.26145
5.26145
5.26144
5.26144
5.26144
5.26144
5.26144
5.26144
5.26144
5.26144
5.26115
5.26115
5.26115
5.26115
5.26115
5.26115
5.26115
5.26115
5.26115
5.26116
5.26116
5.26116
5.26116
5.26116
5.26116
5.26116
5.26116
5.26117
5.26117
5.26117
5.26117
5.26117
5.26117
5.26117
5.26118
5.26118
5.26118
5.26118
5.26118
5.26118