/*--------------------------------*- C++ -*----------------------------------*\
  =========                 |
  \\      /  F ield         | OpenFOAM: The Open Source CFD Toolbox
   \\    /   O peration     | Website:  https://openfoam.org
    \\  /    A nd           | Version:  11
     \\/     M anipulation  |
\*---------------------------------------------------------------------------*/
FoamFile
{
    format      ascii;
    class       volScalarField;
    location    "1506";
    object      p;
}
// * * * * * * * * * * * * * * * * * * * * * * * * * * * * * * * * * * * * * //

dimensions      [0 2 -2 0 0 0 0];

internalField   nonuniform List<scalar> 
440320
(
1.15742
1.11473
1.08468
1.06744
1.05608
1.04776
1.04155
1.0369
1.03336
1.03063
1.02847
1.02674
1.02534
1.02418
1.02321
1.02239
1.02169
1.02109
1.02056
1.0201
1.01969
1.01934
1.01902
1.01874
1.01849
1.01826
1.01806
1.01789
1.01773
1.01759
1.01747
1.01736
1.01727
1.01719
1.01712
1.01707
1.01702
1.01699
1.01697
1.01696
1.01696
1.01697
1.01699
1.01702
1.01707
1.01712
1.01719
1.01727
1.01736
1.01747
1.01759
1.01773
1.01789
1.01806
1.01826
1.01849
1.01874
1.01902
1.01934
1.01969
1.0201
1.02056
1.02109
1.02169
1.02239
1.02321
1.02418
1.02534
1.02674
1.02847
1.03063
1.03336
1.0369
1.04155
1.04776
1.05608
1.06744
1.08468
1.11473
1.15742
1.06081
1.05837
1.05443
1.04999
1.04565
1.04168
1.03819
1.0352
1.03266
1.0305
1.02868
1.02714
1.02582
1.0247
1.02373
1.02289
1.02217
1.02153
1.02098
1.02049
1.02005
1.01967
1.01933
1.01903
1.01876
1.01852
1.0183
1.01811
1.01794
1.01779
1.01766
1.01755
1.01745
1.01736
1.01729
1.01723
1.01718
1.01715
1.01713
1.01711
1.01711
1.01713
1.01715
1.01718
1.01723
1.01729
1.01736
1.01745
1.01755
1.01766
1.01779
1.01794
1.01811
1.0183
1.01852
1.01876
1.01903
1.01933
1.01967
1.02005
1.02049
1.02098
1.02153
1.02217
1.02289
1.02373
1.0247
1.02582
1.02714
1.02868
1.0305
1.03266
1.0352
1.03819
1.04168
1.04565
1.04999
1.05443
1.05837
1.06081
1.03739
1.03948
1.04057
1.03988
1.0383
1.03642
1.03449
1.03263
1.0309
1.02932
1.02791
1.02665
1.02554
1.02455
1.02368
1.02291
1.02223
1.02163
1.02109
1.02061
1.02019
1.01981
1.01947
1.01916
1.01889
1.01865
1.01843
1.01823
1.01806
1.01791
1.01777
1.01766
1.01755
1.01746
1.01739
1.01733
1.01728
1.01725
1.01722
1.01721
1.01721
1.01722
1.01725
1.01728
1.01733
1.01739
1.01746
1.01755
1.01766
1.01777
1.01791
1.01806
1.01823
1.01843
1.01865
1.01889
1.01916
1.01947
1.01981
1.02019
1.02061
1.02109
1.02163
1.02223
1.02291
1.02368
1.02455
1.02554
1.02665
1.02791
1.02932
1.0309
1.03263
1.03449
1.03642
1.0383
1.03988
1.04057
1.03948
1.03739
1.02875
1.03071
1.03217
1.03252
1.03216
1.03144
1.03052
1.0295
1.02845
1.02743
1.02645
1.02553
1.02468
1.0239
1.02318
1.02254
1.02195
1.02142
1.02094
1.0205
1.02011
1.01976
1.01944
1.01915
1.01889
1.01866
1.01845
1.01826
1.01809
1.01794
1.01781
1.01769
1.01759
1.01751
1.01743
1.01737
1.01733
1.01729
1.01727
1.01726
1.01726
1.01727
1.01729
1.01733
1.01737
1.01743
1.01751
1.01759
1.01769
1.01781
1.01794
1.01809
1.01826
1.01845
1.01866
1.01889
1.01915
1.01944
1.01976
1.02011
1.0205
1.02094
1.02142
1.02195
1.02254
1.02318
1.0239
1.02468
1.02553
1.02645
1.02743
1.02845
1.0295
1.03052
1.03144
1.03216
1.03252
1.03217
1.03071
1.02875
1.02398
1.02547
1.02676
1.02741
1.02759
1.02746
1.02712
1.02663
1.02606
1.02544
1.02481
1.02418
1.02357
1.02299
1.02244
1.02193
1.02145
1.02101
1.0206
1.02023
1.01988
1.01957
1.01928
1.01902
1.01879
1.01857
1.01838
1.0182
1.01804
1.0179
1.01778
1.01767
1.01757
1.01749
1.01742
1.01736
1.01732
1.01728
1.01726
1.01725
1.01725
1.01726
1.01728
1.01732
1.01736
1.01742
1.01749
1.01757
1.01767
1.01778
1.0179
1.01804
1.0182
1.01838
1.01857
1.01879
1.01902
1.01928
1.01957
1.01988
1.02023
1.0206
1.02101
1.02145
1.02193
1.02244
1.02299
1.02357
1.02418
1.02481
1.02544
1.02606
1.02663
1.02712
1.02746
1.02759
1.02741
1.02676
1.02547
1.02398
1.02117
1.02227
1.02329
1.02395
1.0243
1.02443
1.02438
1.0242
1.02392
1.02358
1.0232
1.02279
1.02238
1.02197
1.02156
1.02118
1.02081
1.02046
1.02013
1.01982
1.01953
1.01927
1.01902
1.01879
1.01859
1.0184
1.01822
1.01807
1.01792
1.0178
1.01768
1.01758
1.01749
1.01742
1.01735
1.0173
1.01726
1.01723
1.01721
1.01719
1.01719
1.01721
1.01723
1.01726
1.0173
1.01735
1.01742
1.01749
1.01758
1.01768
1.0178
1.01792
1.01807
1.01822
1.0184
1.01859
1.01879
1.01902
1.01927
1.01953
1.01982
1.02013
1.02046
1.02081
1.02118
1.02156
1.02197
1.02238
1.02279
1.0232
1.02358
1.02392
1.0242
1.02438
1.02443
1.0243
1.02395
1.02329
1.02227
1.02117
1.01931
1.02013
1.02093
1.0215
1.02188
1.0221
1.02219
1.02218
1.02208
1.02192
1.02171
1.02146
1.0212
1.02092
1.02064
1.02036
1.02009
1.01982
1.01957
1.01932
1.01909
1.01887
1.01867
1.01848
1.01831
1.01815
1.018
1.01786
1.01774
1.01762
1.01752
1.01744
1.01736
1.01729
1.01723
1.01718
1.01715
1.01712
1.0171
1.01709
1.01709
1.0171
1.01712
1.01715
1.01718
1.01723
1.01729
1.01736
1.01744
1.01752
1.01762
1.01774
1.01786
1.018
1.01815
1.01831
1.01848
1.01867
1.01887
1.01909
1.01932
1.01957
1.01982
1.02009
1.02036
1.02064
1.02092
1.0212
1.02146
1.02171
1.02192
1.02208
1.02218
1.02219
1.0221
1.02188
1.0215
1.02093
1.02013
1.01931
1.01797
1.01859
1.01922
1.0197
1.02005
1.0203
1.02045
1.02052
1.02053
1.02047
1.02037
1.02024
1.02008
1.01991
1.01972
1.01953
1.01934
1.01914
1.01895
1.01877
1.01859
1.01842
1.01826
1.01811
1.01797
1.01783
1.01771
1.0176
1.01749
1.0174
1.01731
1.01724
1.01717
1.01711
1.01706
1.01702
1.01699
1.01696
1.01694
1.01694
1.01694
1.01694
1.01696
1.01699
1.01702
1.01706
1.01711
1.01717
1.01724
1.01731
1.0174
1.01749
1.0176
1.01771
1.01783
1.01797
1.01811
1.01826
1.01842
1.01859
1.01877
1.01895
1.01914
1.01934
1.01953
1.01972
1.01991
1.02008
1.02024
1.02037
1.02047
1.02053
1.02052
1.02045
1.0203
1.02005
1.0197
1.01922
1.01859
1.01797
1.01694
1.01742
1.01792
1.01832
1.01864
1.01888
1.01905
1.01916
1.01922
1.01923
1.0192
1.01914
1.01906
1.01896
1.01884
1.01872
1.01859
1.01846
1.01832
1.01819
1.01805
1.01793
1.0178
1.01769
1.01758
1.01747
1.01737
1.01728
1.0172
1.01712
1.01705
1.01699
1.01693
1.01688
1.01684
1.01681
1.01678
1.01676
1.01675
1.01674
1.01674
1.01675
1.01676
1.01678
1.01681
1.01684
1.01688
1.01693
1.01699
1.01705
1.01712
1.0172
1.01728
1.01737
1.01747
1.01758
1.01769
1.0178
1.01793
1.01805
1.01819
1.01832
1.01846
1.01859
1.01872
1.01884
1.01896
1.01906
1.01914
1.0192
1.01923
1.01922
1.01916
1.01905
1.01888
1.01864
1.01832
1.01792
1.01742
1.01694
1.01612
1.0165
1.0169
1.01724
1.01751
1.01773
1.0179
1.01802
1.01811
1.01816
1.01817
1.01816
1.01813
1.01808
1.01802
1.01795
1.01787
1.01778
1.01769
1.0176
1.0175
1.01741
1.01732
1.01724
1.01715
1.01707
1.017
1.01693
1.01686
1.0168
1.01675
1.0167
1.01666
1.01662
1.01658
1.01656
1.01653
1.01652
1.01651
1.0165
1.0165
1.01651
1.01652
1.01653
1.01656
1.01658
1.01662
1.01666
1.0167
1.01675
1.0168
1.01686
1.01693
1.017
1.01707
1.01715
1.01724
1.01732
1.01741
1.0175
1.0176
1.01769
1.01778
1.01787
1.01795
1.01802
1.01808
1.01813
1.01816
1.01817
1.01816
1.01811
1.01802
1.0179
1.01773
1.01751
1.01724
1.0169
1.0165
1.01612
1.01544
1.01575
1.01608
1.01635
1.01659
1.01678
1.01694
1.01707
1.01716
1.01723
1.01727
1.01729
1.0173
1.01728
1.01726
1.01722
1.01717
1.01712
1.01707
1.01701
1.01695
1.01689
1.01683
1.01677
1.01671
1.01665
1.0166
1.01655
1.0165
1.01646
1.01641
1.01638
1.01634
1.01632
1.01629
1.01627
1.01625
1.01624
1.01623
1.01623
1.01623
1.01623
1.01624
1.01625
1.01627
1.01629
1.01632
1.01634
1.01638
1.01641
1.01646
1.0165
1.01655
1.0166
1.01665
1.01671
1.01677
1.01683
1.01689
1.01695
1.01701
1.01707
1.01712
1.01717
1.01722
1.01726
1.01728
1.0173
1.01729
1.01727
1.01723
1.01716
1.01707
1.01694
1.01678
1.01659
1.01635
1.01608
1.01575
1.01544
1.01486
1.01511
1.01538
1.01561
1.01581
1.01598
1.01613
1.01625
1.01635
1.01643
1.01648
1.01652
1.01654
1.01655
1.01655
1.01654
1.01652
1.0165
1.01647
1.01644
1.0164
1.01637
1.01633
1.01629
1.01625
1.01622
1.01618
1.01615
1.01611
1.01608
1.01605
1.01603
1.01601
1.01599
1.01597
1.01595
1.01594
1.01593
1.01593
1.01592
1.01592
1.01593
1.01593
1.01594
1.01595
1.01597
1.01599
1.01601
1.01603
1.01605
1.01608
1.01611
1.01615
1.01618
1.01622
1.01625
1.01629
1.01633
1.01637
1.0164
1.01644
1.01647
1.0165
1.01652
1.01654
1.01655
1.01655
1.01654
1.01652
1.01648
1.01643
1.01635
1.01625
1.01613
1.01598
1.01581
1.01561
1.01538
1.01511
1.01486
1.01435
1.01456
1.01478
1.01498
1.01515
1.0153
1.01543
1.01554
1.01564
1.01572
1.01578
1.01583
1.01586
1.01589
1.0159
1.01591
1.01591
1.01591
1.0159
1.01588
1.01587
1.01585
1.01583
1.01581
1.01579
1.01577
1.01575
1.01573
1.01571
1.01569
1.01568
1.01566
1.01565
1.01563
1.01562
1.01561
1.0156
1.0156
1.01559
1.01559
1.01559
1.01559
1.0156
1.0156
1.01561
1.01562
1.01563
1.01565
1.01566
1.01568
1.01569
1.01571
1.01573
1.01575
1.01577
1.01579
1.01581
1.01583
1.01585
1.01587
1.01588
1.0159
1.01591
1.01591
1.01591
1.0159
1.01589
1.01586
1.01583
1.01578
1.01572
1.01564
1.01554
1.01543
1.0153
1.01515
1.01498
1.01478
1.01456
1.01435
1.0139
1.01407
1.01426
1.01442
1.01457
1.0147
1.01482
1.01492
1.01501
1.01508
1.01515
1.0152
1.01524
1.01528
1.0153
1.01532
1.01534
1.01535
1.01535
1.01535
1.01535
1.01535
1.01535
1.01534
1.01533
1.01532
1.01532
1.01531
1.0153
1.01529
1.01528
1.01528
1.01527
1.01526
1.01526
1.01525
1.01525
1.01525
1.01524
1.01524
1.01524
1.01524
1.01525
1.01525
1.01525
1.01526
1.01526
1.01527
1.01528
1.01528
1.01529
1.0153
1.01531
1.01532
1.01532
1.01533
1.01534
1.01535
1.01535
1.01535
1.01535
1.01535
1.01535
1.01534
1.01532
1.0153
1.01528
1.01524
1.0152
1.01515
1.01508
1.01501
1.01492
1.01482
1.0147
1.01457
1.01442
1.01426
1.01407
1.0139
1.01349
1.01363
1.01379
1.01393
1.01406
1.01417
1.01427
1.01436
1.01445
1.01452
1.01458
1.01463
1.01468
1.01472
1.01475
1.01478
1.0148
1.01482
1.01483
1.01485
1.01486
1.01486
1.01487
1.01487
1.01488
1.01488
1.01488
1.01488
1.01488
1.01488
1.01488
1.01488
1.01488
1.01488
1.01488
1.01488
1.01488
1.01488
1.01488
1.01488
1.01488
1.01488
1.01488
1.01488
1.01488
1.01488
1.01488
1.01488
1.01488
1.01488
1.01488
1.01488
1.01488
1.01488
1.01488
1.01488
1.01487
1.01487
1.01486
1.01486
1.01485
1.01483
1.01482
1.0148
1.01478
1.01475
1.01472
1.01468
1.01463
1.01458
1.01452
1.01445
1.01436
1.01427
1.01417
1.01406
1.01393
1.01379
1.01363
1.01349
1.01311
1.01323
1.01336
1.01348
1.01359
1.01369
1.01378
1.01386
1.01393
1.014
1.01406
1.01411
1.01416
1.0142
1.01423
1.01427
1.0143
1.01432
1.01434
1.01436
1.01438
1.01439
1.01441
1.01442
1.01443
1.01444
1.01445
1.01446
1.01447
1.01447
1.01448
1.01448
1.01449
1.01449
1.01449
1.01449
1.0145
1.0145
1.0145
1.0145
1.0145
1.0145
1.0145
1.0145
1.01449
1.01449
1.01449
1.01449
1.01448
1.01448
1.01447
1.01447
1.01446
1.01445
1.01444
1.01443
1.01442
1.01441
1.01439
1.01438
1.01436
1.01434
1.01432
1.0143
1.01427
1.01423
1.0142
1.01416
1.01411
1.01406
1.014
1.01393
1.01386
1.01378
1.01369
1.01359
1.01348
1.01336
1.01323
1.01311
1.01275
1.01286
1.01297
1.01307
1.01316
1.01325
1.01333
1.0134
1.01347
1.01353
1.01358
1.01363
1.01368
1.01372
1.01375
1.01379
1.01382
1.01385
1.01387
1.0139
1.01392
1.01394
1.01396
1.01398
1.014
1.01401
1.01402
1.01404
1.01405
1.01406
1.01407
1.01408
1.01409
1.01409
1.0141
1.01411
1.01411
1.01411
1.01411
1.01412
1.01412
1.01411
1.01411
1.01411
1.01411
1.0141
1.01409
1.01409
1.01408
1.01407
1.01406
1.01405
1.01404
1.01402
1.01401
1.014
1.01398
1.01396
1.01394
1.01392
1.0139
1.01387
1.01385
1.01382
1.01379
1.01375
1.01372
1.01368
1.01363
1.01358
1.01353
1.01347
1.0134
1.01333
1.01325
1.01316
1.01307
1.01297
1.01286
1.01275
1.01242
1.0125
1.0126
1.01268
1.01276
1.01284
1.01291
1.01297
1.01303
1.01309
1.01314
1.01318
1.01323
1.01327
1.0133
1.01334
1.01337
1.0134
1.01343
1.01346
1.01348
1.0135
1.01353
1.01355
1.01357
1.01359
1.01361
1.01362
1.01364
1.01365
1.01367
1.01368
1.01369
1.0137
1.01371
1.01371
1.01372
1.01372
1.01373
1.01373
1.01373
1.01373
1.01372
1.01372
1.01371
1.01371
1.0137
1.01369
1.01368
1.01367
1.01365
1.01364
1.01362
1.01361
1.01359
1.01357
1.01355
1.01353
1.0135
1.01348
1.01346
1.01343
1.0134
1.01337
1.01334
1.0133
1.01327
1.01323
1.01318
1.01314
1.01309
1.01303
1.01297
1.01291
1.01284
1.01276
1.01268
1.0126
1.0125
1.01242
1.01209
1.01217
1.01225
1.01232
1.01239
1.01245
1.01251
1.01257
1.01262
1.01267
1.01272
1.01276
1.0128
1.01284
1.01288
1.01291
1.01294
1.01297
1.013
1.01303
1.01306
1.01308
1.01311
1.01313
1.01315
1.01318
1.0132
1.01322
1.01323
1.01325
1.01327
1.01328
1.01329
1.0133
1.01331
1.01332
1.01333
1.01333
1.01334
1.01334
1.01334
1.01334
1.01333
1.01333
1.01332
1.01331
1.0133
1.01329
1.01328
1.01327
1.01325
1.01323
1.01322
1.0132
1.01318
1.01315
1.01313
1.01311
1.01308
1.01306
1.01303
1.013
1.01297
1.01294
1.01291
1.01288
1.01284
1.0128
1.01276
1.01272
1.01267
1.01262
1.01257
1.01251
1.01245
1.01239
1.01232
1.01225
1.01217
1.01209
1.01178
1.01184
1.01191
1.01197
1.01203
1.01209
1.01214
1.01219
1.01224
1.01228
1.01232
1.01236
1.0124
1.01244
1.01247
1.0125
1.01254
1.01257
1.01259
1.01262
1.01265
1.01268
1.0127
1.01273
1.01275
1.01277
1.0128
1.01282
1.01284
1.01285
1.01287
1.01289
1.0129
1.01291
1.01292
1.01293
1.01294
1.01295
1.01295
1.01295
1.01295
1.01295
1.01295
1.01294
1.01293
1.01292
1.01291
1.0129
1.01289
1.01287
1.01285
1.01284
1.01282
1.0128
1.01277
1.01275
1.01273
1.0127
1.01268
1.01265
1.01262
1.01259
1.01257
1.01254
1.0125
1.01247
1.01244
1.0124
1.01236
1.01232
1.01228
1.01224
1.01219
1.01214
1.01209
1.01203
1.01197
1.01191
1.01184
1.01178
1.01148
1.01153
1.01159
1.01164
1.01169
1.01174
1.01179
1.01183
1.01187
1.01191
1.01195
1.01199
1.01202
1.01205
1.01208
1.01211
1.01214
1.01217
1.0122
1.01223
1.01226
1.01228
1.01231
1.01233
1.01236
1.01238
1.0124
1.01243
1.01245
1.01246
1.01248
1.0125
1.01251
1.01253
1.01254
1.01255
1.01255
1.01256
1.01256
1.01257
1.01257
1.01256
1.01256
1.01255
1.01255
1.01254
1.01253
1.01251
1.0125
1.01248
1.01246
1.01245
1.01243
1.0124
1.01238
1.01236
1.01233
1.01231
1.01228
1.01226
1.01223
1.0122
1.01217
1.01214
1.01211
1.01208
1.01205
1.01202
1.01199
1.01195
1.01191
1.01187
1.01183
1.01179
1.01174
1.01169
1.01164
1.01159
1.01153
1.01148
1.01118
1.01122
1.01127
1.01132
1.01136
1.01141
1.01145
1.01148
1.01152
1.01156
1.01159
1.01162
1.01165
1.01168
1.01171
1.01174
1.01177
1.0118
1.01182
1.01185
1.01188
1.0119
1.01193
1.01195
1.01198
1.012
1.01202
1.01204
1.01206
1.01208
1.0121
1.01212
1.01213
1.01214
1.01216
1.01217
1.01217
1.01218
1.01218
1.01219
1.01219
1.01218
1.01218
1.01217
1.01217
1.01216
1.01214
1.01213
1.01212
1.0121
1.01208
1.01206
1.01204
1.01202
1.012
1.01198
1.01195
1.01193
1.0119
1.01188
1.01185
1.01182
1.0118
1.01177
1.01174
1.01171
1.01168
1.01165
1.01162
1.01159
1.01156
1.01152
1.01148
1.01145
1.01141
1.01136
1.01132
1.01127
1.01122
1.01118
1.01089
1.01092
1.01097
1.01101
1.01104
1.01108
1.01112
1.01115
1.01118
1.01121
1.01124
1.01127
1.0113
1.01133
1.01135
1.01138
1.01141
1.01143
1.01146
1.01148
1.01151
1.01153
1.01156
1.01158
1.0116
1.01163
1.01165
1.01167
1.01169
1.01171
1.01173
1.01174
1.01176
1.01177
1.01178
1.01179
1.0118
1.0118
1.01181
1.01181
1.01181
1.01181
1.0118
1.0118
1.01179
1.01178
1.01177
1.01176
1.01174
1.01173
1.01171
1.01169
1.01167
1.01165
1.01163
1.0116
1.01158
1.01156
1.01153
1.01151
1.01148
1.01146
1.01143
1.01141
1.01138
1.01135
1.01133
1.0113
1.01127
1.01124
1.01121
1.01118
1.01115
1.01112
1.01108
1.01104
1.01101
1.01097
1.01092
1.01089
1.0106
1.01063
1.01067
1.0107
1.01073
1.01076
1.01079
1.01082
1.01085
1.01088
1.01091
1.01093
1.01096
1.01098
1.01101
1.01103
1.01105
1.01108
1.0111
1.01113
1.01115
1.01117
1.0112
1.01122
1.01124
1.01126
1.01128
1.0113
1.01132
1.01134
1.01136
1.01137
1.01139
1.0114
1.01141
1.01142
1.01143
1.01143
1.01144
1.01144
1.01144
1.01144
1.01143
1.01143
1.01142
1.01141
1.0114
1.01139
1.01137
1.01136
1.01134
1.01132
1.0113
1.01128
1.01126
1.01124
1.01122
1.0112
1.01117
1.01115
1.01113
1.0111
1.01108
1.01105
1.01103
1.01101
1.01098
1.01096
1.01093
1.01091
1.01088
1.01085
1.01082
1.01079
1.01076
1.01073
1.0107
1.01067
1.01063
1.0106
1.01031
1.01034
1.01037
1.0104
1.01043
1.01045
1.01048
1.0105
1.01053
1.01055
1.01058
1.0106
1.01062
1.01065
1.01067
1.01069
1.01071
1.01073
1.01076
1.01078
1.0108
1.01082
1.01084
1.01086
1.01088
1.01091
1.01092
1.01094
1.01096
1.01098
1.011
1.01101
1.01102
1.01104
1.01105
1.01106
1.01106
1.01107
1.01107
1.01107
1.01107
1.01107
1.01107
1.01106
1.01106
1.01105
1.01104
1.01102
1.01101
1.011
1.01098
1.01096
1.01094
1.01092
1.01091
1.01088
1.01086
1.01084
1.01082
1.0108
1.01078
1.01076
1.01073
1.01071
1.01069
1.01067
1.01065
1.01062
1.0106
1.01058
1.01055
1.01053
1.0105
1.01048
1.01045
1.01043
1.0104
1.01037
1.01034
1.01031
1.01003
1.01005
1.01008
1.0101
1.01012
1.01015
1.01017
1.01019
1.01021
1.01024
1.01026
1.01028
1.0103
1.01032
1.01034
1.01036
1.01038
1.0104
1.01042
1.01044
1.01046
1.01048
1.0105
1.01052
1.01054
1.01056
1.01057
1.01059
1.01061
1.01063
1.01064
1.01065
1.01067
1.01068
1.01069
1.0107
1.0107
1.01071
1.01071
1.01071
1.01071
1.01071
1.01071
1.0107
1.0107
1.01069
1.01068
1.01067
1.01065
1.01064
1.01063
1.01061
1.01059
1.01057
1.01056
1.01054
1.01052
1.0105
1.01048
1.01046
1.01044
1.01042
1.0104
1.01038
1.01036
1.01034
1.01032
1.0103
1.01028
1.01026
1.01024
1.01021
1.01019
1.01017
1.01015
1.01012
1.0101
1.01008
1.01005
1.01003
1.00974
1.00976
1.00978
1.00981
1.00983
1.00985
1.00987
1.00989
1.0099
1.00992
1.00994
1.00996
1.00998
1.00999
1.01001
1.01003
1.01005
1.01007
1.01009
1.0101
1.01012
1.01014
1.01016
1.01018
1.0102
1.01021
1.01023
1.01025
1.01026
1.01028
1.01029
1.01031
1.01032
1.01033
1.01034
1.01035
1.01035
1.01036
1.01036
1.01036
1.01036
1.01036
1.01036
1.01035
1.01035
1.01034
1.01033
1.01032
1.01031
1.01029
1.01028
1.01026
1.01025
1.01023
1.01021
1.0102
1.01018
1.01016
1.01014
1.01012
1.0101
1.01009
1.01007
1.01005
1.01003
1.01001
1.00999
1.00998
1.00996
1.00994
1.00992
1.0099
1.00989
1.00987
1.00985
1.00983
1.00981
1.00978
1.00976
1.00974
1.00946
1.00948
1.0095
1.00951
1.00953
1.00955
1.00956
1.00958
1.0096
1.00961
1.00963
1.00965
1.00966
1.00968
1.00969
1.00971
1.00973
1.00974
1.00976
1.00978
1.00979
1.00981
1.00983
1.00984
1.00986
1.00988
1.00989
1.00991
1.00992
1.00994
1.00995
1.00996
1.00997
1.00998
1.00999
1.01
1.01
1.01001
1.01001
1.01001
1.01001
1.01001
1.01001
1.01
1.01
1.00999
1.00998
1.00997
1.00996
1.00995
1.00994
1.00992
1.00991
1.00989
1.00988
1.00986
1.00984
1.00983
1.00981
1.00979
1.00978
1.00976
1.00974
1.00973
1.00971
1.00969
1.00968
1.00966
1.00965
1.00963
1.00961
1.0096
1.00958
1.00956
1.00955
1.00953
1.00951
1.0095
1.00948
1.00946
1.00918
1.00919
1.00921
1.00922
1.00924
1.00925
1.00927
1.00928
1.0093
1.00931
1.00932
1.00934
1.00935
1.00937
1.00938
1.00939
1.00941
1.00942
1.00944
1.00945
1.00947
1.00949
1.0095
1.00952
1.00953
1.00955
1.00956
1.00957
1.00959
1.0096
1.00961
1.00962
1.00963
1.00964
1.00965
1.00966
1.00966
1.00967
1.00967
1.00967
1.00967
1.00967
1.00967
1.00966
1.00966
1.00965
1.00964
1.00963
1.00962
1.00961
1.0096
1.00959
1.00957
1.00956
1.00955
1.00953
1.00952
1.0095
1.00949
1.00947
1.00945
1.00944
1.00942
1.00941
1.00939
1.00938
1.00937
1.00935
1.00934
1.00932
1.00931
1.0093
1.00928
1.00927
1.00925
1.00924
1.00922
1.00921
1.00919
1.00918
1.00889
1.00891
1.00892
1.00893
1.00895
1.00896
1.00897
1.00898
1.009
1.00901
1.00902
1.00903
1.00904
1.00906
1.00907
1.00908
1.0091
1.00911
1.00912
1.00914
1.00915
1.00916
1.00918
1.00919
1.00921
1.00922
1.00923
1.00924
1.00926
1.00927
1.00928
1.00929
1.0093
1.00931
1.00931
1.00932
1.00933
1.00933
1.00933
1.00933
1.00933
1.00933
1.00933
1.00933
1.00932
1.00931
1.00931
1.0093
1.00929
1.00928
1.00927
1.00926
1.00924
1.00923
1.00922
1.00921
1.00919
1.00918
1.00916
1.00915
1.00914
1.00912
1.00911
1.0091
1.00908
1.00907
1.00906
1.00904
1.00903
1.00902
1.00901
1.009
1.00898
1.00897
1.00896
1.00895
1.00893
1.00892
1.00891
1.00889
1.00861
1.00862
1.00863
1.00864
1.00865
1.00867
1.00868
1.00869
1.0087
1.00871
1.00872
1.00873
1.00874
1.00875
1.00876
1.00877
1.00879
1.0088
1.00881
1.00882
1.00883
1.00885
1.00886
1.00887
1.00888
1.0089
1.00891
1.00892
1.00893
1.00894
1.00895
1.00896
1.00897
1.00898
1.00898
1.00899
1.00899
1.009
1.009
1.009
1.009
1.009
1.009
1.00899
1.00899
1.00898
1.00898
1.00897
1.00896
1.00895
1.00894
1.00893
1.00892
1.00891
1.0089
1.00888
1.00887
1.00886
1.00885
1.00883
1.00882
1.00881
1.0088
1.00879
1.00877
1.00876
1.00875
1.00874
1.00873
1.00872
1.00871
1.0087
1.00869
1.00868
1.00867
1.00865
1.00864
1.00863
1.00862
1.00861
1.00833
1.00834
1.00835
1.00836
1.00836
1.00837
1.00838
1.00839
1.0084
1.00841
1.00842
1.00843
1.00844
1.00845
1.00846
1.00847
1.00848
1.00849
1.0085
1.00851
1.00852
1.00853
1.00854
1.00856
1.00857
1.00858
1.00859
1.0086
1.00861
1.00862
1.00863
1.00864
1.00864
1.00865
1.00866
1.00866
1.00867
1.00867
1.00867
1.00867
1.00867
1.00867
1.00867
1.00867
1.00866
1.00866
1.00865
1.00864
1.00864
1.00863
1.00862
1.00861
1.0086
1.00859
1.00858
1.00857
1.00856
1.00854
1.00853
1.00852
1.00851
1.0085
1.00849
1.00848
1.00847
1.00846
1.00845
1.00844
1.00843
1.00842
1.00841
1.0084
1.00839
1.00838
1.00837
1.00836
1.00836
1.00835
1.00834
1.00833
1.00804
1.00805
1.00806
1.00807
1.00807
1.00808
1.00809
1.0081
1.00811
1.00811
1.00812
1.00813
1.00814
1.00815
1.00816
1.00817
1.00817
1.00818
1.00819
1.0082
1.00821
1.00822
1.00823
1.00824
1.00825
1.00826
1.00827
1.00828
1.00829
1.0083
1.00831
1.00831
1.00832
1.00833
1.00833
1.00834
1.00834
1.00834
1.00835
1.00835
1.00835
1.00835
1.00834
1.00834
1.00834
1.00833
1.00833
1.00832
1.00831
1.00831
1.0083
1.00829
1.00828
1.00827
1.00826
1.00825
1.00824
1.00823
1.00822
1.00821
1.0082
1.00819
1.00818
1.00817
1.00817
1.00816
1.00815
1.00814
1.00813
1.00812
1.00811
1.00811
1.0081
1.00809
1.00808
1.00807
1.00807
1.00806
1.00805
1.00804
1.00776
1.00777
1.00777
1.00778
1.00779
1.00779
1.0078
1.00781
1.00781
1.00782
1.00783
1.00783
1.00784
1.00785
1.00786
1.00786
1.00787
1.00788
1.00789
1.0079
1.00791
1.00791
1.00792
1.00793
1.00794
1.00795
1.00796
1.00797
1.00797
1.00798
1.00799
1.008
1.008
1.00801
1.00801
1.00802
1.00802
1.00802
1.00802
1.00803
1.00803
1.00802
1.00802
1.00802
1.00802
1.00801
1.00801
1.008
1.008
1.00799
1.00798
1.00797
1.00797
1.00796
1.00795
1.00794
1.00793
1.00792
1.00791
1.00791
1.0079
1.00789
1.00788
1.00787
1.00786
1.00786
1.00785
1.00784
1.00783
1.00783
1.00782
1.00781
1.00781
1.0078
1.00779
1.00779
1.00778
1.00777
1.00777
1.00776
1.00747
1.00748
1.00749
1.00749
1.0075
1.0075
1.00751
1.00751
1.00752
1.00752
1.00753
1.00754
1.00754
1.00755
1.00756
1.00756
1.00757
1.00758
1.00759
1.00759
1.0076
1.00761
1.00762
1.00762
1.00763
1.00764
1.00765
1.00766
1.00766
1.00767
1.00768
1.00768
1.00769
1.00769
1.0077
1.0077
1.0077
1.0077
1.00771
1.00771
1.00771
1.00771
1.0077
1.0077
1.0077
1.0077
1.00769
1.00769
1.00768
1.00768
1.00767
1.00766
1.00766
1.00765
1.00764
1.00763
1.00762
1.00762
1.00761
1.0076
1.00759
1.00759
1.00758
1.00757
1.00756
1.00756
1.00755
1.00754
1.00754
1.00753
1.00752
1.00752
1.00751
1.00751
1.0075
1.0075
1.00749
1.00749
1.00748
1.00747
1.00719
1.00719
1.0072
1.0072
1.00721
1.00721
1.00722
1.00722
1.00723
1.00723
1.00724
1.00724
1.00725
1.00725
1.00726
1.00727
1.00727
1.00728
1.00728
1.00729
1.0073
1.0073
1.00731
1.00732
1.00733
1.00733
1.00734
1.00735
1.00735
1.00736
1.00736
1.00737
1.00737
1.00738
1.00738
1.00739
1.00739
1.00739
1.00739
1.00739
1.00739
1.00739
1.00739
1.00739
1.00739
1.00738
1.00738
1.00737
1.00737
1.00736
1.00736
1.00735
1.00735
1.00734
1.00733
1.00733
1.00732
1.00731
1.0073
1.0073
1.00729
1.00728
1.00728
1.00727
1.00727
1.00726
1.00725
1.00725
1.00724
1.00724
1.00723
1.00723
1.00722
1.00722
1.00721
1.00721
1.0072
1.0072
1.00719
1.00719
1.0069
1.00691
1.00691
1.00691
1.00692
1.00692
1.00692
1.00693
1.00693
1.00694
1.00694
1.00695
1.00695
1.00696
1.00696
1.00697
1.00697
1.00698
1.00698
1.00699
1.007
1.007
1.00701
1.00701
1.00702
1.00703
1.00703
1.00704
1.00704
1.00705
1.00705
1.00706
1.00706
1.00707
1.00707
1.00707
1.00708
1.00708
1.00708
1.00708
1.00708
1.00708
1.00708
1.00708
1.00707
1.00707
1.00707
1.00706
1.00706
1.00705
1.00705
1.00704
1.00704
1.00703
1.00703
1.00702
1.00701
1.00701
1.007
1.007
1.00699
1.00698
1.00698
1.00697
1.00697
1.00696
1.00696
1.00695
1.00695
1.00694
1.00694
1.00693
1.00693
1.00692
1.00692
1.00692
1.00691
1.00691
1.00691
1.0069
1.00662
1.00662
1.00662
1.00662
1.00663
1.00663
1.00663
1.00664
1.00664
1.00664
1.00665
1.00665
1.00666
1.00666
1.00667
1.00667
1.00668
1.00668
1.00669
1.00669
1.0067
1.0067
1.00671
1.00671
1.00672
1.00672
1.00673
1.00673
1.00674
1.00674
1.00675
1.00675
1.00675
1.00676
1.00676
1.00676
1.00677
1.00677
1.00677
1.00677
1.00677
1.00677
1.00677
1.00677
1.00676
1.00676
1.00676
1.00675
1.00675
1.00675
1.00674
1.00674
1.00673
1.00673
1.00672
1.00672
1.00671
1.00671
1.0067
1.0067
1.00669
1.00669
1.00668
1.00668
1.00667
1.00667
1.00666
1.00666
1.00665
1.00665
1.00664
1.00664
1.00664
1.00663
1.00663
1.00663
1.00662
1.00662
1.00662
1.00662
1.00633
1.00633
1.00633
1.00633
1.00634
1.00634
1.00634
1.00635
1.00635
1.00635
1.00636
1.00636
1.00636
1.00637
1.00637
1.00637
1.00638
1.00638
1.00639
1.00639
1.0064
1.0064
1.00641
1.00641
1.00642
1.00642
1.00642
1.00643
1.00643
1.00644
1.00644
1.00644
1.00645
1.00645
1.00645
1.00646
1.00646
1.00646
1.00646
1.00646
1.00646
1.00646
1.00646
1.00646
1.00646
1.00645
1.00645
1.00645
1.00644
1.00644
1.00644
1.00643
1.00643
1.00642
1.00642
1.00642
1.00641
1.00641
1.0064
1.0064
1.00639
1.00639
1.00638
1.00638
1.00637
1.00637
1.00637
1.00636
1.00636
1.00636
1.00635
1.00635
1.00635
1.00634
1.00634
1.00634
1.00633
1.00633
1.00633
1.00633
1.00604
1.00604
1.00604
1.00604
1.00605
1.00605
1.00605
1.00605
1.00606
1.00606
1.00606
1.00607
1.00607
1.00607
1.00607
1.00608
1.00608
1.00609
1.00609
1.00609
1.0061
1.0061
1.00611
1.00611
1.00611
1.00612
1.00612
1.00613
1.00613
1.00613
1.00614
1.00614
1.00614
1.00615
1.00615
1.00615
1.00615
1.00615
1.00615
1.00615
1.00615
1.00615
1.00615
1.00615
1.00615
1.00615
1.00615
1.00614
1.00614
1.00614
1.00613
1.00613
1.00613
1.00612
1.00612
1.00611
1.00611
1.00611
1.0061
1.0061
1.00609
1.00609
1.00609
1.00608
1.00608
1.00607
1.00607
1.00607
1.00607
1.00606
1.00606
1.00606
1.00605
1.00605
1.00605
1.00605
1.00604
1.00604
1.00604
1.00604
1.00575
1.00575
1.00575
1.00575
1.00576
1.00576
1.00576
1.00576
1.00576
1.00577
1.00577
1.00577
1.00577
1.00578
1.00578
1.00578
1.00579
1.00579
1.00579
1.0058
1.0058
1.0058
1.00581
1.00581
1.00581
1.00582
1.00582
1.00582
1.00583
1.00583
1.00583
1.00584
1.00584
1.00584
1.00584
1.00585
1.00585
1.00585
1.00585
1.00585
1.00585
1.00585
1.00585
1.00585
1.00585
1.00584
1.00584
1.00584
1.00584
1.00583
1.00583
1.00583
1.00582
1.00582
1.00582
1.00581
1.00581
1.00581
1.0058
1.0058
1.0058
1.00579
1.00579
1.00579
1.00578
1.00578
1.00578
1.00577
1.00577
1.00577
1.00577
1.00576
1.00576
1.00576
1.00576
1.00576
1.00575
1.00575
1.00575
1.00575
1.00546
1.00546
1.00546
1.00546
1.00547
1.00547
1.00547
1.00547
1.00547
1.00547
1.00548
1.00548
1.00548
1.00548
1.00549
1.00549
1.00549
1.00549
1.0055
1.0055
1.0055
1.00551
1.00551
1.00551
1.00552
1.00552
1.00552
1.00552
1.00553
1.00553
1.00553
1.00553
1.00554
1.00554
1.00554
1.00554
1.00554
1.00554
1.00555
1.00555
1.00555
1.00555
1.00554
1.00554
1.00554
1.00554
1.00554
1.00554
1.00553
1.00553
1.00553
1.00553
1.00552
1.00552
1.00552
1.00552
1.00551
1.00551
1.00551
1.0055
1.0055
1.0055
1.00549
1.00549
1.00549
1.00549
1.00548
1.00548
1.00548
1.00548
1.00547
1.00547
1.00547
1.00547
1.00547
1.00547
1.00546
1.00546
1.00546
1.00546
1.00517
1.00517
1.00517
1.00517
1.00517
1.00518
1.00518
1.00518
1.00518
1.00518
1.00518
1.00518
1.00519
1.00519
1.00519
1.00519
1.0052
1.0052
1.0052
1.0052
1.00521
1.00521
1.00521
1.00521
1.00522
1.00522
1.00522
1.00522
1.00523
1.00523
1.00523
1.00523
1.00524
1.00524
1.00524
1.00524
1.00524
1.00524
1.00524
1.00524
1.00524
1.00524
1.00524
1.00524
1.00524
1.00524
1.00524
1.00524
1.00523
1.00523
1.00523
1.00523
1.00522
1.00522
1.00522
1.00522
1.00521
1.00521
1.00521
1.00521
1.0052
1.0052
1.0052
1.0052
1.00519
1.00519
1.00519
1.00519
1.00518
1.00518
1.00518
1.00518
1.00518
1.00518
1.00518
1.00517
1.00517
1.00517
1.00517
1.00517
1.00488
1.00488
1.00488
1.00488
1.00488
1.00488
1.00488
1.00489
1.00489
1.00489
1.00489
1.00489
1.00489
1.00489
1.0049
1.0049
1.0049
1.0049
1.0049
1.00491
1.00491
1.00491
1.00491
1.00492
1.00492
1.00492
1.00492
1.00493
1.00493
1.00493
1.00493
1.00493
1.00494
1.00494
1.00494
1.00494
1.00494
1.00494
1.00494
1.00494
1.00494
1.00494
1.00494
1.00494
1.00494
1.00494
1.00494
1.00494
1.00493
1.00493
1.00493
1.00493
1.00493
1.00492
1.00492
1.00492
1.00492
1.00491
1.00491
1.00491
1.00491
1.0049
1.0049
1.0049
1.0049
1.0049
1.00489
1.00489
1.00489
1.00489
1.00489
1.00489
1.00489
1.00488
1.00488
1.00488
1.00488
1.00488
1.00488
1.00488
1.00459
1.00459
1.00459
1.00459
1.00459
1.00459
1.00459
1.00459
1.00459
1.0046
1.0046
1.0046
1.0046
1.0046
1.0046
1.0046
1.00461
1.00461
1.00461
1.00461
1.00461
1.00462
1.00462
1.00462
1.00462
1.00462
1.00463
1.00463
1.00463
1.00463
1.00463
1.00463
1.00464
1.00464
1.00464
1.00464
1.00464
1.00464
1.00464
1.00464
1.00464
1.00464
1.00464
1.00464
1.00464
1.00464
1.00464
1.00464
1.00463
1.00463
1.00463
1.00463
1.00463
1.00463
1.00462
1.00462
1.00462
1.00462
1.00462
1.00461
1.00461
1.00461
1.00461
1.00461
1.0046
1.0046
1.0046
1.0046
1.0046
1.0046
1.0046
1.00459
1.00459
1.00459
1.00459
1.00459
1.00459
1.00459
1.00459
1.00459
1.0043
1.0043
1.0043
1.0043
1.0043
1.0043
1.0043
1.0043
1.0043
1.0043
1.0043
1.0043
1.00431
1.00431
1.00431
1.00431
1.00431
1.00431
1.00431
1.00432
1.00432
1.00432
1.00432
1.00432
1.00432
1.00433
1.00433
1.00433
1.00433
1.00433
1.00433
1.00434
1.00434
1.00434
1.00434
1.00434
1.00434
1.00434
1.00434
1.00434
1.00434
1.00434
1.00434
1.00434
1.00434
1.00434
1.00434
1.00434
1.00434
1.00433
1.00433
1.00433
1.00433
1.00433
1.00433
1.00432
1.00432
1.00432
1.00432
1.00432
1.00432
1.00431
1.00431
1.00431
1.00431
1.00431
1.00431
1.00431
1.0043
1.0043
1.0043
1.0043
1.0043
1.0043
1.0043
1.0043
1.0043
1.0043
1.0043
1.0043
1.004
1.004
1.004
1.004
1.00401
1.00401
1.00401
1.00401
1.00401
1.00401
1.00401
1.00401
1.00401
1.00401
1.00401
1.00402
1.00402
1.00402
1.00402
1.00402
1.00402
1.00402
1.00402
1.00403
1.00403
1.00403
1.00403
1.00403
1.00403
1.00404
1.00404
1.00404
1.00404
1.00404
1.00404
1.00404
1.00404
1.00404
1.00404
1.00404