/*--------------------------------*- C++ -*----------------------------------*\
  =========                 |
  \\      /  F ield         | OpenFOAM: The Open Source CFD Toolbox
   \\    /   O peration     | Website:  https://openfoam.org
    \\  /    A nd           | Version:  11
     \\/     M anipulation  |
\*---------------------------------------------------------------------------*/
FoamFile
{
    format      ascii;
    class       volScalarField;
    location    "100";
    object      C;
}
// * * * * * * * * * * * * * * * * * * * * * * * * * * * * * * * * * * * * * //

dimensions      [0 0 0 1 0 0 0];

internalField   nonuniform List<scalar> 
427520
(
1.00814e-311
3.395e-311
3.23319e-311
1.20472e-311
-6.8676e-312
-8.0648e-312
-9.82218e-312
-1.44259e-311
1.70929e-312
2.04763e-311
2.19897e-311
1.53172e-311
1.9772e-311
1.99429e-311
9.01138e-312
3.71645e-313
-1.65477e-312
-5.94866e-312
-4.36017e-312
-1.78696e-312
-1.5752e-314
1.27347e-311
1.86058e-311
1.08856e-311
2.06925e-311
4.89888e-312
-6.41722e-312
-6.65965e-312
-2.7402e-311
-4.58971e-312
-3.3658e-311
-3.99449e-311
-2.95951e-311
-2.9698e-311
-1.38619e-311
-1.28742e-311
-2.79403e-311
-6.27292e-312
1.19947e-311
2.66947e-311
2.91088e-311
4.01103e-311
6.84468e-312
3.68348e-312
-4.41076e-312
-6.06568e-312
-1.40059e-311
1.32216e-311
-5.37348e-313
-6.71638e-312
1.46577e-311
4.17685e-311
4.41584e-311
1.83458e-311
3.2531e-311
1.00765e-311
-4.32017e-312
-1.05769e-311
1.05257e-311
6.56005e-313
2.89614e-312
-5.38877e-312
7.53202e-312
-2.88098e-311
-1.07976e-311
3.47951e-312
1.0971e-311
-6.60471e-312
-1.18874e-311
-1.58034e-311
-1.59514e-311
-2.52332e-311
1.45273e-311
1.60063e-312
1.06402e-311
-3.75073e-312
-1.31336e-311
-2.48817e-311
-1.78571e-311
-2.88675e-311
-8.7735e-311
-2.21811e-311
6.44341e-312
-2.9695e-311
-3.20191e-311
-2.65143e-311
-1.57512e-311
-9.68488e-312
1.68389e-311
8.68588e-312
1.75426e-311
3.38596e-311
4.94274e-311
-1.11844e-311
-1.41219e-311
1.6207e-312
6.24094e-312
3.39692e-311
2.31384e-311
1.7269e-311
1.07012e-311
4.21177e-311
3.26808e-311
5.02634e-311
3.21109e-311
-7.86467e-312
1.20498e-311
-7.19975e-312
-2.86511e-311
-3.30692e-311
-3.66112e-311
-3.57997e-311
-2.68092e-311
-1.03896e-311
1.19081e-311
2.04458e-311
-2.18562e-311
-8.19255e-312
1.80735e-311
-2.75378e-312
8.89203e-313
2.38492e-311
1.04431e-311
-1.63346e-311
-9.24359e-312
-1.4959e-311
2.20736e-311
1.35219e-311
4.15191e-312
-5.47179e-312
-1.09439e-311
5.95821e-312
3.21701e-311
4.48427e-311
1.32828e-311
-1.43036e-311
6.68609e-313
4.81239e-313
5.71426e-313
2.61852e-311
-4.90866e-312
-9.56467e-312
3.59224e-313
-1.23667e-311
-4.43261e-312
6.0304e-313
1.07306e-311
1.44252e-311
-3.68463e-312
7.48794e-313
7.18257e-312
-7.73699e-312
-4.48588e-312
-2.82174e-312
-1.04932e-311
-7.57169e-312
-2.6709e-311
-2.61373e-311
-3.89726e-311
-3.16461e-311
-5.83502e-311
-5.03744e-311
-5.04005e-311
-8.14107e-311
-7.19705e-311
-6.81915e-311
-4.51039e-311
-3.84932e-311
-1.2733e-311
1.48847e-311
3.18475e-311
6.74908e-311
5.88264e-311
2.88936e-311
2.49407e-311
2.37708e-311
1.43382e-311
2.02352e-311
1.7601e-311
1.5556e-311
1.35325e-311
3.08555e-311
2.2287e-311
3.27111e-311
3.15116e-311
-1.15918e-311
-2.56191e-311
-1.27008e-311
-1.25497e-311
-1.26318e-311
-1.94562e-311
1.65595e-311
-1.48798e-311
-3.26232e-311
8.58346e-312
1.9096e-311
7.36917e-312
1.73665e-311
4.60288e-311
2.35889e-311
2.56271e-311
3.25592e-311
-3.07309e-311
-5.38251e-311
-1.00804e-311
-1.68033e-312
9.36721e-312
1.05226e-312
-5.56381e-312
-2.30179e-312
-1.40569e-312
3.84818e-311
3.27542e-311
3.0197e-311
1.17478e-311
-1.95507e-312
-9.28178e-312
9.33509e-312
3.66484e-312
1.86477e-311
1.20675e-311
-2.79221e-311
-2.51641e-311
-1.94226e-311
7.11368e-312
-1.54411e-311
-2.34684e-311
-2.88283e-311
-5.30177e-311
-4.06867e-311
-1.2646e-311
4.87245e-312
-9.39428e-312
-1.4793e-311
-3.0007e-312
-8.85289e-314
-5.20881e-312
-7.43739e-312
-1.11157e-311
-1.86603e-311
-7.72807e-311
-8.85824e-311
-8.80624e-311
-6.4334e-311
-8.33806e-311
-7.17815e-311
-5.96823e-311
-4.27151e-311
-3.30746e-311
-6.70663e-312
2.99584e-311
3.3562e-311
3.40614e-311
2.31324e-311
4.36744e-311
3.16042e-311
2.43364e-311
4.86837e-311
4.42964e-311
2.72636e-311
3.43915e-311
2.41872e-311
2.12971e-311
5.22593e-311
2.24137e-311
-1.05747e-311
-2.01929e-311
-5.65404e-311
-2.86932e-311
-3.17965e-311
-3.68677e-311
7.49997e-312
1.51785e-311
-7.84319e-313
-1.22678e-311
1.91794e-312
-1.56373e-311
1.96025e-311
4.62193e-311
4.06986e-311
6.07508e-311
1.1031e-311
-5.62147e-311
-6.04627e-311
-7.29704e-312
-1.16309e-311
-1.05026e-311
-4.89814e-312
-4.08461e-311
-2.72036e-311
-1.85551e-311
3.8838e-311
3.81835e-311
2.92614e-311
5.80147e-312
-5.76841e-312
6.47192e-312
4.82181e-311
4.72632e-311
2.75135e-311
1.76649e-311
-2.32088e-311
-1.95505e-311
1.94615e-311
4.15816e-312
4.0004e-312
-1.86332e-311
-4.18165e-311
-4.34403e-311
-5.16346e-311
-4.78547e-311
-2.14057e-311
-2.45092e-311
-5.01877e-311
-5.09549e-311
-5.1103e-311
-4.11567e-311
-2.68043e-311
-4.99665e-311
-1.0714e-310
-1.17248e-310
-5.01656e-311
-5.36496e-311
-4.79782e-311
-6.74832e-311
-6.3421e-311
-6.85224e-311
-6.57667e-311
3.8401e-313
1.35261e-312
5.40681e-312
9.34794e-312
1.36837e-311
1.65243e-311
2.25194e-311
2.16509e-312
2.52836e-311
4.3444e-311
1.81255e-311
2.34947e-311
1.78727e-311
2.2697e-311
1.8929e-311
3.989e-311
2.51528e-311
-6.1812e-313
-5.20694e-311
-8.16588e-311
-5.87888e-311
-5.87786e-311
-5.74706e-311
5.20437e-312
1.03727e-311
4.82701e-311
3.34294e-311
3.00111e-312
1.08756e-311
3.00762e-311
2.61254e-311
2.23992e-311
5.7775e-311
3.60246e-311
-1.56471e-311
-8.44289e-312
2.88073e-311
-3.76706e-312
8.58626e-313
-1.96569e-311
-6.37161e-311
-5.82205e-311
-1.26432e-311
1.58282e-311
2.22639e-311
2.62036e-311
2.98399e-311
4.11369e-311
7.69002e-311
1.07538e-310
1.19884e-310
1.06766e-310
1.01471e-310
4.74812e-311
8.39753e-312
3.60892e-311
4.56552e-311
2.90212e-311
2.46038e-311
-1.23759e-311
-3.68501e-311
-3.67099e-311
-5.47858e-311
-3.00079e-311
-2.99657e-311
-4.78413e-311
-5.18299e-311
-9.56328e-311
-5.72615e-311
-9.80627e-311
-9.08442e-311
-2.90126e-311
-9.00884e-311
-5.98756e-311
-7.28152e-311
-9.78523e-311
-1.0203e-310
-7.52523e-311
-6.71192e-311
-7.08644e-311
-3.90437e-311
-5.36692e-311
-4.74165e-311
-2.96923e-311
6.42196e-312
1.03123e-311
6.3292e-312
-1.24063e-311
2.02649e-311
3.84891e-311
-2.05663e-312
1.20734e-311
1.31902e-311
2.39884e-312
3.28944e-312
1.64643e-311
2.94478e-311
1.23796e-311
-3.63888e-311
-4.76188e-311
-2.70124e-311
-5.8651e-311
-3.94767e-311
-3.2851e-311
-1.26119e-311
4.54056e-311
8.02607e-311
4.64794e-311
5.3009e-311
3.97321e-311
3.12898e-311
1.38845e-311
5.45437e-311
2.16726e-311
2.72453e-311
3.01171e-311
3.20333e-311
6.30235e-312
-4.56324e-313
-4.03293e-311
-5.91146e-311
-8.89694e-311
-5.94558e-311
5.7021e-312
3.30064e-311
3.11109e-311
5.97002e-311
7.18485e-311
1.16936e-310
1.71847e-310
1.84598e-310
1.46439e-310
1.07774e-310
6.17168e-311
1.16601e-311
7.77814e-312
2.67411e-311
3.49811e-311
1.66267e-311
1.48306e-311
-4.38612e-313
-8.02909e-312
5.94969e-312
-3.55874e-311
-3.25281e-311
-4.65227e-311
-8.52979e-311
-7.84842e-311
-8.23231e-311
-7.6044e-311
-7.42531e-311
3.89256e-311
1.25532e-311
4.50776e-311
1.90895e-311
-3.56837e-311
-4.83983e-311
-4.72915e-311
-7.3319e-311
-5.86414e-311
-1.99482e-311
-2.17268e-311
-3.87451e-311
-2.87249e-311
-4.47265e-312
-3.71327e-312
-4.42618e-312
-2.82798e-311
-3.52461e-311
-8.06629e-312
7.29404e-312
3.62757e-311
1.99042e-311
3.01183e-311
1.82981e-311
9.51782e-312
2.22278e-311
5.90489e-312
-1.19066e-311
-4.25413e-311
-1.46362e-311
-2.83434e-311
-1.90985e-311
-1.35707e-311
-1.41551e-311
2.41514e-311
1.0217e-310
9.69552e-311
5.49689e-311
1.93414e-311
-7.07734e-312
1.47887e-312
-2.17542e-311
3.5161e-312
4.10902e-311
5.33941e-311
5.39245e-311
3.2243e-311
2.34916e-312
-3.98161e-311
-6.75952e-311
-1.23593e-310
-6.17014e-311
3.72541e-312
2.49008e-311
4.78114e-311
3.65771e-311
3.33749e-311
5.30066e-311
1.45634e-310
2.05291e-310
1.97732e-310
1.85422e-310
9.97302e-311
2.45757e-311
-1.87803e-311
2.05213e-311
5.76075e-311
6.45029e-311
4.45265e-311
1.60054e-311
-2.89754e-312
-3.52396e-311
-9.69859e-311
-1.17093e-310
-1.31215e-310
-1.781e-310
-1.45664e-310
-1.4531e-310
-1.15273e-310
-1.38259e-310
-1.47931e-310
1.78266e-310
8.84443e-311
4.5594e-311
-7.1781e-312
3.04411e-312
-2.98113e-311
-2.37447e-311
-1.97768e-311
-3.33189e-311
-8.66916e-312
-2.0781e-311
-6.57934e-312
1.74237e-311
-2.19961e-311
-1.87889e-311
-6.5102e-311
-7.11731e-311
-3.53748e-311
-7.68384e-312
-4.68007e-312
9.86979e-313
2.15648e-312
8.73132e-312
3.35738e-311
2.62103e-311
-4.47671e-312
-5.8787e-312
-3.13584e-311
-2.61053e-311
-1.61606e-311
1.18653e-312
3.11553e-311
1.2248e-312
4.94127e-311
9.33777e-311
1.16599e-310
7.9607e-311
4.30252e-312
-2.91358e-311
-1.06556e-312
-6.92523e-311
-5.35724e-311
6.73382e-312
6.67604e-311
6.87638e-311
7.4765e-311
7.59102e-311
1.02248e-312
-3.7799e-311
-7.57992e-311
-5.43487e-311
-2.31779e-311
-2.94392e-311
2.72265e-311
6.8471e-312
-1.14519e-311
-4.67399e-311
3.22851e-311
1.29516e-310
1.50786e-310
1.5543e-310
1.02228e-310
-2.77626e-312
-4.19918e-311
4.82019e-311
1.35306e-310
1.76087e-310
1.2672e-310
8.38979e-311
9.01009e-311
1.85534e-311
-9.59179e-311
-1.47321e-310
-1.43423e-310
-1.62905e-310
-1.56033e-310
-2.0226e-310
-1.72409e-310
-1.68005e-310
-1.46603e-310
2.78124e-310
2.06435e-310
1.60945e-310
9.16336e-311
8.97352e-311
3.96032e-311
1.91937e-311
3.44635e-312
1.98052e-312
-2.40748e-312
-4.78797e-311
-6.81032e-312
3.24732e-312
-4.9213e-312
-2.31216e-312
-7.81077e-311
-7.09305e-311
-6.36992e-311
-3.67699e-311
-6.2225e-311
-4.77237e-311
-6.69839e-312
3.5307e-311
1.86727e-311
-1.33432e-311
-9.95055e-312
7.32696e-312
-1.82027e-311
-2.5399e-311
-1.12721e-311
3.12484e-311
7.11279e-311
2.05704e-311
3.97981e-311
8.41003e-311
1.01672e-310
6.35133e-311
3.02426e-311
-9.25537e-313
-3.15144e-311
-6.03126e-311
-9.06583e-311
-3.07621e-311
5.23114e-311
9.62922e-311
8.96979e-311
1.40446e-310
1.11823e-310
6.68375e-311
-5.10054e-312
-8.16156e-311
-1.18695e-310
-8.76549e-311
-4.50461e-311
-1.71837e-311
-7.64369e-311
-1.26521e-310
-6.13662e-311
-3.85505e-311
-1.83007e-312
2.55088e-311
9.49329e-312
-5.45299e-311
-8.18231e-311
1.47155e-311
1.68666e-310
2.77518e-310
2.42947e-310
2.00062e-310
1.65788e-310
8.32416e-311
-6.26522e-312
-4.86898e-311
-5.67669e-311
-8.81238e-311
-9.06274e-311
-9.52241e-311
-5.48424e-311
-5.1775e-311
-3.63461e-311
1.64919e-310
1.66998e-310
1.9424e-310
1.61395e-310
1.17259e-310
8.39536e-311
2.03204e-311
9.41125e-312
9.96134e-312
-3.82501e-312
-3.60956e-311
-2.26323e-311
-1.66886e-311
2.85367e-311
-5.8991e-312
-5.25447e-311
-6.33437e-311
-5.32894e-311
-1.14912e-311
-1.13007e-311
-3.24639e-311
1.77752e-311
4.28873e-311
-1.45759e-312
-1.8229e-311
-7.6042e-312
-2.53696e-311
-5.15019e-311
-2.28603e-311
-2.84758e-312
2.12653e-311
5.11974e-311
6.30815e-312
-1.04038e-312
4.60299e-311
7.69777e-311
7.74112e-311
1.45012e-311
-3.14917e-311
-1.52482e-311
-6.10525e-311
-7.54649e-311
-2.84384e-311
4.32941e-311
1.26888e-310
1.48862e-310
2.14352e-310
1.73452e-310
1.70334e-310
7.72026e-311
-2.69012e-311
-1.25445e-310
-1.30034e-310
-1.16117e-310
-4.47565e-311
-5.6825e-311
-1.37353e-310
-1.28037e-310
-1.348e-310
-1.16297e-310
-8.93335e-311
-4.53773e-311
-1.33937e-310
-1.79925e-310
-5.71651e-311
9.26652e-311
2.51299e-310
2.85228e-310
2.29086e-310
2.25559e-310
1.82797e-310
1.32701e-310
7.21879e-311
3.35702e-311
-7.01942e-312
-8.73245e-313
2.19178e-311
5.22639e-311
3.84329e-311
6.02838e-311
9.66051e-311
1.09179e-310
1.85614e-310
1.95029e-310
1.80868e-310
1.58156e-310
1.22549e-310
7.33238e-311
2.91479e-311
4.42483e-311
3.12344e-311
1.46596e-311
-2.0773e-311
1.19624e-311
-1.74363e-311
-2.12609e-311
-7.28712e-311
-8.24531e-311
-4.00221e-311
2.21642e-311
1.93895e-311
4.76726e-311
7.6561e-311
2.81951e-311
7.08905e-312
-1.40546e-311
-3.54981e-311
-4.38085e-311
-2.61683e-311
-7.73029e-312
3.66524e-311
4.07224e-311
4.92802e-311
-2.99663e-312
3.21646e-312
4.71313e-311
7.87931e-311
1.79562e-311
-5.05718e-311
-4.90795e-311
-6.93826e-311
-5.22619e-311
-4.91176e-311
3.55396e-311
1.10625e-310
1.53903e-310
2.55407e-310
2.43502e-310
1.88461e-310
1.27723e-310
5.16041e-311
-2.5242e-311
-1.03701e-310
-1.25175e-310
-5.63874e-311
-9.53355e-311
-1.72073e-310
-1.81919e-310
-1.40547e-310
-1.21678e-310
-1.2872e-310
-7.8075e-311
-1.21898e-310
-2.21415e-310
-1.66945e-310
-3.26272e-311
1.22285e-310
1.95347e-310
1.76224e-310
2.01698e-310
2.58509e-310
2.55031e-310
1.91662e-310
9.1383e-311
1.32782e-311
6.35833e-311
8.58083e-311
2.58545e-311
3.54789e-311
-1.61694e-311
-1.20609e-310
-9.33059e-311
-1.28508e-311
3.73121e-311
1.1704e-310
1.17344e-310
1.3024e-310
1.57817e-310
1.13526e-310
1.16148e-310
6.82143e-311
2.66016e-311
-1.35271e-312
1.48125e-311
1.15026e-311
-2.13616e-311
-4.53304e-311
-1.00532e-310
-8.41886e-311
-3.32902e-311
1.39191e-312
4.29837e-311
9.60845e-311
5.57988e-311
-3.26198e-312
-8.05903e-312
-1.17947e-311
-3.28587e-311
-5.32535e-311
-3.93504e-311
-1.45672e-313
4.78521e-311
5.00697e-311
-1.13901e-311
3.33961e-313
3.74612e-311
9.56027e-311
-8.31342e-313
-5.10092e-311
-2.99654e-311
-1.97569e-311
-3.39363e-311
-3.83807e-311
-1.42631e-311
6.74683e-311
1.47812e-310
1.97838e-310
2.3279e-310
2.17215e-310
1.97391e-310
1.20361e-310
8.73837e-311
5.43209e-312
-8.80042e-311
-9.80652e-311
-1.38282e-310
-2.09933e-310
-2.278e-310
-1.75454e-310
-1.37168e-310
-1.79645e-310
-1.40535e-310
-1.55452e-310
-2.64952e-310
-3.24822e-310
-2.29372e-310
-8.05378e-311
3.16094e-311
6.47653e-311
1.46226e-310
2.2916e-310
2.5521e-310
1.81107e-310
1.05171e-310
-1.15006e-311
2.27876e-311
-2.99913e-311
-6.20125e-311
-9.65537e-311
-1.12526e-310
-1.63714e-310
-1.76421e-310
-1.30844e-310
-5.48333e-311
-1.05139e-311
4.56944e-311
9.65727e-311
1.88509e-310
1.51947e-310
1.24031e-310
4.15951e-311
2.17417e-311
1.77011e-311
3.64459e-311
8.21321e-311
3.60422e-311
-9.07403e-312
-5.54141e-311
-8.59781e-311
-6.51198e-311
6.52772e-312
5.65475e-311
5.10218e-311
4.32359e-311
-5.87007e-312
-2.37024e-311
-1.07049e-311
-2.02698e-311
-5.96101e-311
-4.28948e-311
-2.6711e-311
2.0396e-311
-9.43532e-312
4.01479e-312
5.0769e-312
5.50475e-311
9.06015e-311
5.48599e-311
-7.69728e-312
2.16716e-311
2.97597e-311
-5.38616e-313
-5.95475e-311
-5.56472e-311
-1.49513e-311
1.04149e-310
1.60463e-310
2.21337e-310
2.67809e-310
2.56993e-310
2.3064e-310
1.87528e-310
1.38876e-310
3.64162e-311
-3.43691e-311
-9.96463e-311
-1.84649e-310
-1.87456e-310
-1.5004e-310
-1.30587e-310
-1.21356e-310
-1.09077e-310
-1.6567e-310
-2.80534e-310
-3.12158e-310
-3.10626e-310
-1.94994e-310
-7.89038e-311
-4.72005e-311
-2.37407e-311
8.30179e-311
1.16959e-310
7.33485e-311
-2.18262e-311
-7.43626e-311
-5.52175e-311
-1.10734e-310
-1.35578e-310
-2.13271e-310
-2.6588e-310
-2.20767e-310
-2.40727e-310
-2.13907e-310
-1.61097e-310
-6.37461e-311
-4.6833e-311
3.91294e-311
1.11875e-310
1.27529e-310
7.87126e-311
5.54206e-311
1.92586e-311
-3.95792e-312
2.67787e-311
6.779e-311
2.60108e-311
-1.81662e-311
-2.71624e-311
-6.36838e-311
-5.20608e-311
2.55188e-311
8.20732e-311
5.19867e-311
2.47558e-311
-8.13516e-312
-3.7518e-311
1.52849e-311
-2.36477e-312
-3.82066e-311
-4.23708e-311
-4.17091e-311
-1.33281e-311
-1.3304e-311
1.46765e-311
2.1557e-311
4.28998e-311
4.36915e-311
5.54095e-311
-6.45396e-312
1.33356e-311
1.25393e-311
1.28993e-311
-6.23767e-311
-7.78516e-311
-5.30258e-311
2.20222e-311
1.1069e-310
2.05462e-310
2.7038e-310
2.73201e-310
3.06217e-310
2.93066e-310
2.66707e-310
1.64443e-310
1.06946e-310
1.43503e-311
-1.08306e-310
-1.28459e-310
-1.06002e-310
-7.1588e-311
-4.42249e-311
-1.54145e-311
-3.71231e-311
-1.88093e-310
-2.91868e-310
-3.51698e-310
-3.09215e-310
-2.13738e-310
-1.60066e-310
-1.37471e-310
-4.72199e-311
2.21048e-312
-2.15821e-311
-1.72663e-310
-2.45672e-310
-2.08309e-310
-1.90247e-310
-2.1248e-310
-3.07938e-310
-3.01368e-310
-2.31552e-310
-2.72982e-310
-2.98659e-310
-2.42849e-310
-1.70169e-310
-1.67695e-310
-4.48644e-311
6.83942e-311
8.74321e-311
1.20117e-310
1.16371e-310
5.92463e-311
-7.27493e-312
1.74809e-311
9.53723e-311
6.91767e-311
4.81272e-311
9.89653e-312
2.90663e-312
-2.58751e-311
8.98899e-312
7.08987e-311
5.25372e-311
4.20908e-311
2.45025e-311
1.54116e-311
-1.194e-311
-1.36711e-311
-1.68208e-311
-3.06671e-311
-3.36938e-311
-2.25139e-311
-1.46672e-311
5.25367e-312
1.43343e-311
-1.18576e-312
3.44094e-311
4.04474e-311
7.39561e-312
-2.71311e-311
9.2926e-312
-7.73383e-312
-7.12376e-311
-8.50068e-311
-7.74595e-311
-4.03109e-311
4.89288e-311
1.40488e-310
2.00333e-310
2.2202e-310
3.06643e-310
3.43273e-310
3.44597e-310
2.90085e-310
2.33531e-310
1.26928e-310
9.95114e-312
-6.73893e-311
-8.59438e-311
-5.63828e-311
-2.29082e-311
7.31497e-311
9.45818e-311
-7.90896e-312
-1.67771e-310
-3.01924e-310
-3.00475e-310
-2.31982e-310
-2.49467e-310
-2.22936e-310
-1.36205e-310
-1.02026e-310
-9.6561e-311
-1.23617e-310
-1.50856e-310
-1.75022e-310
-2.08651e-310
-2.85936e-310
-3.46918e-310
-3.65347e-310
-1.21975e-310
-1.34091e-310
-1.70022e-310
-2.24239e-310
-2.76766e-310
-2.31933e-310
-5.57298e-311
-7.4276e-312
-6.03059e-312
4.73598e-311
7.31561e-311
1.09201e-310
1.13352e-310
9.17052e-311
9.88584e-311
6.94919e-311
5.78351e-311
6.46106e-311
6.33154e-311
5.21355e-311
5.40929e-311
9.49323e-311
7.75976e-311
3.70242e-311
5.49259e-311
4.3187e-312
-1.57775e-311
-1.54921e-312
8.84499e-312
-3.38324e-311
-6.16642e-311
-8.43761e-312
-1.07477e-311
7.23467e-312
-8.26699e-312
1.06284e-311
4.86894e-311
6.25575e-311
2.44322e-311
2.61908e-311
8.26521e-311
4.44339e-311
-3.20358e-311
-9.74633e-311
-9.55523e-311
-6.32894e-311
-1.71987e-311
5.95089e-311
1.36941e-310
1.70368e-310
2.50059e-310
3.34616e-310
3.68527e-310
3.64967e-310
3.26627e-310
2.04377e-310
1.08436e-310
-6.87093e-312
-3.46317e-311
-2.18858e-311
1.69529e-311
1.46199e-310
2.00586e-310
1.23327e-310
4.68627e-312
-1.24016e-310
-1.95906e-310
-1.60093e-310
-2.44139e-310
-2.50433e-310
-2.06768e-310
-1.37788e-310
-7.18603e-311
2.0084e-311
6.04691e-311
1.67559e-312
-7.14533e-312
-4.31587e-311
-4.68813e-311
2.8387e-311
1.2088e-310
6.57259e-311
-1.50468e-311
-7.4087e-311
-1.79672e-310
-1.74286e-310
-1.2199e-310
-8.4502e-311
-7.23395e-311
-8.82054e-311
-9.48251e-312
5.40189e-311
1.041e-310
1.21272e-310
1.07786e-310
4.60974e-311
2.40614e-311
5.13225e-311
5.35794e-311
8.69853e-311
7.57363e-311
9.67422e-311
8.57055e-311
4.98451e-311
3.928e-311
-1.86206e-311
-4.79061e-312
1.35387e-311
-2.08642e-311
-2.88817e-311
-4.85629e-311
-3.86098e-311
-2.33592e-311
5.31375e-312
8.87782e-312
1.0815e-311
4.15422e-311
3.06203e-311
3.75792e-311
5.00749e-311
7.85753e-311
2.02197e-311
-3.09764e-311
-1.0573e-310
-1.39314e-310
-1.06759e-310
-7.90082e-311
-2.43199e-312
9.02076e-311
1.67114e-310
2.19891e-310
2.72274e-310
3.64336e-310
3.92534e-310
3.82536e-310
2.89089e-310
1.87026e-310
9.96608e-311
5.83167e-311
1.54273e-311
3.32842e-311
1.71913e-310
2.68641e-310
2.30906e-310
1.3543e-310
1.24799e-311
-6.42208e-311
-1.18017e-310
-1.78264e-310
-1.59014e-310
-1.49174e-310
-7.32106e-311
4.1486e-311
1.5834e-310
1.66235e-310
1.39831e-310
1.77302e-310
1.52952e-310
9.16898e-311
1.23309e-311
2.79189e-310
1.6917e-310
5.60441e-311
-1.70341e-312
-7.84069e-311
-1.06093e-310
-7.26339e-311
-3.75935e-311
-5.43146e-311
-5.33093e-311
-1.11194e-311
6.11131e-311
9.77e-311
8.54267e-311
6.42043e-311
1.46303e-311
2.67573e-311
4.07018e-311
3.3309e-311
3.67672e-311
1.01029e-310
1.06158e-310
1.02342e-310
7.74383e-311
2.65956e-311
-1.33833e-311
9.69001e-312
-1.64276e-312
-2.68115e-311
-1.80737e-311
-2.77657e-311
-4.83133e-311
-4.07843e-311
8.20948e-312
1.87182e-311
-1.79267e-311
2.07161e-311
6.34812e-312
-1.33618e-311
1.44101e-312
1.70212e-311
2.17615e-312
-3.67155e-311
-9.24283e-311
-1.42472e-310
-1.0347e-310
-9.16443e-311
-5.66071e-311
3.10029e-311
1.14603e-310
1.53639e-310
2.21377e-310
3.34933e-310
3.65401e-310
3.30124e-310
3.46924e-310
2.75567e-310
1.83195e-310
1.53294e-310
6.61843e-311
6.36934e-311
1.69227e-310
2.73099e-310
3.19047e-310
2.0281e-310
1.0944e-310
-2.82422e-312
-1.20668e-310
-1.34337e-310
-1.21238e-310
-7.66606e-311
3.78298e-312
1.02163e-310
1.37403e-310
2.26915e-310
2.94566e-310
2.59795e-310
1.77131e-310
1.24386e-310
5.66587e-311
1.63847e-310
1.47485e-310
1.37864e-310
6.16031e-311
1.13246e-311
-9.4249e-311
-6.53036e-311
-4.5303e-311
4.38719e-312
1.07815e-311
4.26569e-311
8.58184e-311
1.07292e-310
1.17569e-310
8.66431e-311
6.64766e-311
9.26398e-311
9.11641e-311
3.90896e-311
7.72433e-311
1.08364e-310
1.46057e-310
1.29642e-310
1.17564e-310
5.73282e-311
2.88495e-311
2.70635e-311
1.04086e-311
-1.21028e-311
-8.21013e-312
-2.0826e-311
-1.98209e-311
-2.77391e-311
-2.3794e-311
-1.34327e-311
-2.22222e-311
-1.48356e-311
2.31147e-311
-2.52599e-311
-2.88666e-311
3.31955e-312
1.374e-311
-3.36116e-311
-7.87434e-311
-1.39853e-310
-1.27891e-310
-1.43956e-310
-1.06787e-310
-4.16956e-311
4.33593e-311
4.78737e-311
1.31067e-310
2.2427e-310
2.73777e-310
3.08709e-310
3.46139e-310
3.42629e-310
2.84428e-310
2.04845e-310
1.22195e-310
1.07737e-310
1.77706e-310
3.03357e-310
3.61732e-310
2.98751e-310
1.85666e-310
5.69669e-311
-8.96292e-311
-7.66613e-311
-6.35563e-311
-8.24075e-312
4.34156e-311
4.23746e-311
5.7344e-311
1.69202e-310
2.74344e-310
1.64789e-310
6.74813e-311
-1.23117e-311
-3.05759e-311
-8.51453e-311
-7.03174e-311
6.29318e-311
1.40044e-310
4.58461e-311
-3.88052e-311
-6.78393e-311
-8.19887e-311
-8.30631e-312
4.26538e-312
3.79655e-311
8.88956e-311
1.03423e-310
9.45409e-311
7.02707e-311
8.39218e-311
8.49342e-311
7.0604e-311
6.88575e-311
1.0254e-310
1.12514e-310
1.4432e-310
1.38776e-310
1.41072e-310
7.52391e-311
2.36901e-311
2.41958e-311
1.20784e-312
-1.01267e-311
-7.6153e-312
-5.11731e-311
-4.37575e-311
-5.09877e-311
-4.64263e-311
-2.50414e-311
-2.20782e-311
-4.89225e-311
-1.74879e-311
-1.80628e-311
3.49006e-311
2.98385e-311
3.79563e-311
-3.13598e-312
-5.47772e-311
-1.20316e-310
-1.21655e-310
-2.12814e-310
-1.63116e-310
-1.10491e-310
-3.47955e-311
-1.51963e-311
2.28697e-311
1.39997e-310
2.05221e-310
2.57934e-310
2.59427e-310
2.7682e-310
2.62676e-310
2.21247e-310
1.64059e-310
1.11973e-310
1.89052e-310
2.83262e-310
3.84476e-310
3.53218e-310
2.86646e-310
1.30999e-310
9.97134e-312
-4.84427e-311
-2.68433e-311
-2.92231e-312
-6.40368e-312
-9.15253e-311
-1.18156e-310
-6.87453e-311
8.48726e-313
-4.14184e-311
-4.49036e-311
-1.00055e-310
-7.07894e-311
-4.0901e-310
-3.17633e-310
-9.55816e-311
6.28315e-311
8.39802e-311
1.13888e-311
-4.32986e-311
-5.52949e-311
-3.08983e-311
-1.38822e-311
4.0181e-312
8.40848e-311
7.53944e-311
2.85182e-311
5.51848e-311
7.17789e-311
8.0806e-311
4.80606e-311
4.63937e-311
6.29296e-311
1.2303e-310
1.28567e-310
1.43872e-310
1.78707e-310
1.25956e-310
8.39065e-311
2.53428e-311
1.98387e-312
-3.03797e-311
-4.02117e-311
-4.49337e-311
-4.84714e-311
-7.66403e-311
-5.59921e-311
-4.39112e-311
-5.31833e-311
-5.16981e-311
-5.50256e-311
-2.94446e-311
1.39806e-311
2.31653e-311
7.92652e-311
5.01585e-311
9.81312e-313
-8.91703e-311
-1.08105e-310
-2.07833e-310
-1.86269e-310
-1.82852e-310
-1.20853e-310
-1.15566e-310
-6.6058e-311
6.44486e-311
1.57748e-310
1.59869e-310
1.4521e-310
1.96794e-310
1.76597e-310
1.97161e-310
1.52989e-310
1.07826e-310
1.62982e-310
2.50853e-310
3.59241e-310
3.51497e-310
2.93994e-310
1.88922e-310
1.66478e-311
-7.10825e-311
-7.14977e-311
-5.92329e-311
-6.36494e-311
-1.0851e-310
-1.52374e-310
-1.26116e-310
-1.13212e-310
-1.38986e-310
-1.59326e-310
-1.27723e-310
-1.00695e-310
-3.92024e-310
-3.95064e-310
-2.70829e-310
-7.9061e-311
7.96705e-311
8.78712e-312
-1.67932e-311
-1.14833e-311
-4.03605e-311
-3.42062e-311
5.85107e-311
7.19532e-311
6.66751e-311
3.18278e-311
1.28708e-311
4.87501e-311
7.93777e-311
8.14829e-311
1.60141e-311
1.73859e-311
6.06541e-311
1.24698e-310
1.58643e-310
2.09824e-310
1.80929e-310
1.56687e-310
7.79407e-311
1.31968e-311
-6.22807e-311
-3.66759e-311
-6.12059e-311
-4.40663e-311
-1.02468e-310
-6.67537e-311
-5.90172e-311
-6.38922e-311
-8.48276e-311
-4.25409e-311
-4.33104e-311
-1.72688e-311
1.98494e-311
5.93786e-311
6.85559e-311
3.60375e-311
-5.59002e-311
-1.14598e-310
-2.01621e-310
-2.40912e-310
-2.19036e-310
-1.71186e-310
-1.88718e-310
-1.53042e-310
-4.12054e-311
3.41962e-311
5.99311e-311
3.87202e-311
1.08423e-310
1.1692e-310
1.30328e-310
1.39639e-310
1.39222e-310
1.33598e-310
2.14677e-310
2.75436e-310
3.44239e-310
2.90575e-310
1.88157e-310
6.40674e-311
-6.14514e-311
-1.54543e-310
-1.49011e-310
-1.0494e-310
-8.83332e-311
-1.27705e-310
-1.10103e-310
-6.4109e-311
-2.10248e-311
-2.05814e-311
-1.45642e-310
-1.382e-310
-3.32034e-310
-3.35721e-310
-2.97861e-310
-1.82412e-310
-7.35561e-311
-1.03912e-311
-8.79708e-311
-6.1495e-311
-5.17818e-311
-6.48574e-311
-2.57596e-311
4.86646e-311
9.45987e-311
5.58485e-311
4.27423e-311
6.51141e-311
1.28349e-310
1.16797e-310
3.45713e-311
3.18762e-311
7.75812e-311
1.20429e-310
1.84937e-310
2.10714e-310
2.22721e-310
1.59911e-310
1.00621e-310
1.06517e-311
-7.91997e-311
-7.09163e-311
-7.137e-311
-1.00395e-310
-8.75466e-311
-5.8364e-311
-4.59438e-311
-4.70613e-311
-9.43745e-311
-4.47838e-311
-4.98529e-311
1.51597e-312
3.10112e-311
6.20063e-311
1.03446e-310
6.05278e-311
1.16344e-311
-7.75843e-311
-2.00756e-310
-2.60734e-310
-2.6801e-310
-2.3974e-310
-2.47703e-310
-2.49808e-310
-1.39263e-310
-7.00491e-311
-6.74551e-311
-5.98985e-311
-1.00328e-311
7.07605e-311
7.95566e-311
8.17993e-311
6.66548e-311
4.81994e-311
1.27625e-310
2.43212e-310
2.73647e-310
2.73922e-310
1.83754e-310
1.09331e-310
-3.72523e-311
-1.48066e-310
-1.45947e-310
-8.61149e-311
-3.85382e-311
8.70066e-312
5.01229e-312
9.88817e-311
1.89062e-310
1.48109e-310
3.94439e-311
1.84417e-311
-1.94623e-310
-2.27306e-310
-3.00654e-310
-2.97513e-310
-2.3633e-310
-1.58961e-310
-1.12413e-310
-1.15136e-310
-8.24527e-311
-7.99232e-311
-4.20964e-311
1.64365e-311
3.53447e-311
9.04216e-311
5.08233e-311
8.024e-311
1.25388e-310
1.18561e-310
6.42034e-311
6.33567e-311
6.21004e-311
9.52842e-311
1.65862e-310
2.1369e-310
2.29437e-310
1.76267e-310
1.08963e-310
3.70229e-311
-9.68986e-311
-1.19882e-310
-1.14656e-310
-1.14597e-310
-1.08745e-310
-7.02532e-311
-1.89286e-311
-5.18692e-311
-7.4051e-311
-8.9663e-311
-8.54879e-311
-4.85662e-311
-4.70743e-312
5.80993e-311
1.52484e-310
1.09165e-310
6.05597e-311
-4.22936e-311
-1.6521e-310
-2.72143e-310
-2.6153e-310
-2.6955e-310
-2.86424e-310
-3.30479e-310
-2.60374e-310
-1.49997e-310
-1.50294e-310
-1.49583e-310
-7.63433e-311
1.03057e-311
5.2045e-311
7.04835e-312
3.75559e-312
-6.59039e-312
4.79505e-311
1.52133e-310
2.43976e-310
2.4895e-310
2.52053e-310
1.76572e-310
7.19235e-311
-3.70005e-311
-9.05321e-311
-3.14807e-311
5.9075e-311
1.12183e-310
1.11617e-310
1.82743e-310
2.15216e-310
2.0946e-310
1.19078e-310
-3.49101e-312
-1.8845e-311
-3.35019e-311
-8.95787e-311
-1.75271e-310
-1.67085e-310
-1.30689e-310
-1.26037e-310
-1.46478e-310
-1.70412e-310
-1.52689e-310
-7.70487e-311
-1.08711e-311
3.03056e-311
1.17053e-310
9.22977e-311
1.15476e-310
1.22363e-310
1.52226e-310
9.65735e-311
4.44169e-311
5.69375e-311
3.98382e-311
1.30858e-310
2.33784e-310
2.37351e-310
2.27279e-310
1.55017e-310
8.34641e-311
-4.70664e-311
-9.30794e-311
-1.47911e-310
-9.20392e-311
-1.01182e-310
-7.02303e-311
-2.25754e-311
-4.72482e-311
-5.79836e-311
-8.57193e-311
-8.89342e-311
-6.28334e-311
-2.58442e-311
7.26976e-311
1.66469e-310
1.86199e-310
1.07059e-310
-5.30224e-312
-1.18137e-310
-2.02091e-310
-2.1446e-310
-2.62093e-310
-3.10566e-310
-3.6589e-310
-3.65977e-310
-2.98161e-310
-2.4228e-310
-2.32039e-310
-1.57836e-310
-8.09359e-311
-2.85854e-311
-3.14033e-311
-4.02016e-312
-2.1768e-311
2.06335e-313
2.5969e-311
2.077e-310
2.6587e-310
3.22105e-310
3.29241e-310
2.30811e-310
9.85446e-311
3.35585e-311
2.5658e-311
1.2917e-310
1.36779e-310
1.24048e-310
1.1228e-310
1.27539e-310
7.62666e-311
4.68316e-311
2.57898e-311
1.79357e-310
1.53971e-310
8.08132e-311
-1.53125e-311
-2.11296e-311
-5.73051e-311
-4.47252e-311
-8.98104e-311
-8.04983e-311
-1.28101e-310
-9.53812e-311
-4.06648e-311
1.65336e-312
1.03896e-310
1.21313e-310
1.35259e-310
1.49522e-310
1.72599e-310
9.07954e-311
4.30452e-311
2.2426e-311
3.16807e-311
8.62696e-311
2.02543e-310
2.22463e-310
2.34037e-310
1.92863e-310
9.81559e-311
-3.0794e-311
-1.03178e-310
-1.45219e-310
-1.10153e-310
-6.53512e-311
-1.68864e-311
-2.21335e-311
-5.23526e-311
-7.93127e-311
-1.0082e-310
-6.34614e-311
-5.20243e-311
-3.56613e-311
8.07785e-311
1.66393e-310
1.88739e-310
1.08251e-310
8.14731e-311
-7.65476e-311
-1.33513e-310
-1.37285e-310
-2.20437e-310
-3.04822e-310
-3.9299e-310
-4.08911e-310
-3.50977e-310
-3.13145e-310
-2.74565e-310
-2.67432e-310
-1.77078e-310
-1.30997e-310
-7.15116e-311
-5.47206e-311
-5.24203e-311
-6.71243e-311
-5.07776e-311
8.43662e-311
2.37967e-310
3.66777e-310
3.56985e-310
2.80006e-310
1.13575e-310
6.2619e-312
-6.48002e-311
-5.00159e-311
-2.33658e-311
3.10639e-312
-3.47692e-311
-4.0859e-311
-2.54251e-311
-3.80022e-311
1.08174e-310
1.3984e-310
8.09231e-311
-4.57251e-313
-4.50499e-311
-3.6508e-311
-1.88469e-311
-2.34387e-312
-6.27832e-311
-1.06235e-310
-1.07929e-310
-1.11046e-310
-7.42935e-311
-5.14903e-311
5.54726e-311
1.05857e-310
1.23282e-310
1.29977e-310
1.57829e-310
1.19735e-310
5.64595e-311
1.25722e-311
2.48848e-311
8.61637e-311
1.60318e-310
2.08155e-310
1.86749e-310
2.02689e-310
1.1894e-310
-2.10044e-312
-1.15547e-310
-1.33074e-310
-1.29304e-310
-8.2076e-311
-1.32242e-311
-3.41288e-312
-4.34731e-311
-5.87598e-311
-6.70489e-311
-3.78593e-311
-6.66113e-311
-3.70976e-311
1.63198e-311
1.68083e-310
1.66827e-310
1.36734e-310
1.25758e-310
1.51615e-311
-4.24207e-311
-8.66956e-311
-1.34972e-310
-2.19054e-310
-3.89014e-310
-4.15192e-310
-3.74246e-310
-3.40939e-310
-3.24649e-310
-3.09449e-310
-2.84628e-310
-1.99872e-310
-1.66371e-310
-8.13218e-311
-7.34954e-311
-8.86544e-311
-5.46889e-311
2.518e-311
1.81981e-310
3.12516e-310
3.38736e-310
2.74559e-310
1.67004e-310
6.85306e-311
-4.52314e-311
-8.37884e-311
-6.98634e-311
-5.13547e-311
-6.53622e-311
-9.00795e-312
-1.93604e-311
8.37195e-311
1.96304e-310
3.37804e-311
-6.3828e-312
-2.40262e-311
-9.9946e-311
-9.45921e-311
-5.28044e-311
-8.11834e-311
-9.30698e-311
-1.29266e-310
-1.34142e-310
-8.25006e-311
-5.58046e-311
-4.59308e-311
5.40463e-312
6.71364e-311
7.27765e-311
8.66701e-311
1.47727e-310
1.04842e-310
3.22806e-311
-2.97627e-312
-3.31356e-311
4.90118e-311
1.30176e-310
1.82541e-310
1.90445e-310
2.5218e-310
1.86014e-310
3.53553e-311