/*--------------------------------*- C++ -*----------------------------------*\
  =========                 |
  \\      /  F ield         | OpenFOAM: The Open Source CFD Toolbox
   \\    /   O peration     | Website:  https://openfoam.org
    \\  /    A nd           | Version:  11
     \\/     M anipulation  |
\*---------------------------------------------------------------------------*/
FoamFile
{
    format      ascii;
    class       volScalarField;
    location    "630";
    object      p;
}
// * * * * * * * * * * * * * * * * * * * * * * * * * * * * * * * * * * * * * //

dimensions      [0 2 -2 0 0 0 0];

internalField   nonuniform List<scalar> 
427520
(
1.15881
1.11449
1.08364
1.06612
1.05464
1.04627
1.04006
1.03542
1.03191
1.02919
1.02706
1.02535
1.02396
1.02281
1.02185
1.02104
1.02034
1.01974
1.01921
1.01876
1.01835
1.018
1.01768
1.0174
1.01715
1.01692
1.01673
1.01655
1.01639
1.01625
1.01613
1.01602
1.01593
1.01585
1.01578
1.01573
1.01569
1.01565
1.01563
1.01562
1.01562
1.01563
1.01565
1.01569
1.01573
1.01578
1.01585
1.01593
1.01602
1.01613
1.01625
1.01639
1.01655
1.01673
1.01692
1.01715
1.0174
1.01768
1.018
1.01835
1.01876
1.01921
1.01974
1.02034
1.02104
1.02185
1.02281
1.02396
1.02535
1.02706
1.02919
1.03191
1.03542
1.04006
1.04627
1.05464
1.06612
1.08364
1.11449
1.15881
1.06175
1.05876
1.05431
1.04948
1.04486
1.04069
1.03706
1.03398
1.03138
1.02919
1.02735
1.02579
1.02447
1.02334
1.02237
1.02153
1.02081
1.02018
1.01962
1.01913
1.0187
1.01832
1.01798
1.01768
1.01741
1.01717
1.01696
1.01677
1.0166
1.01645
1.01632
1.0162
1.0161
1.01602
1.01595
1.01589
1.01584
1.01581
1.01578
1.01577
1.01577
1.01578
1.01581
1.01584
1.01589
1.01595
1.01602
1.0161
1.0162
1.01632
1.01645
1.0166
1.01677
1.01696
1.01717
1.01741
1.01768
1.01798
1.01832
1.0187
1.01913
1.01962
1.02018
1.02081
1.02153
1.02237
1.02334
1.02447
1.02579
1.02735
1.02919
1.03138
1.03398
1.03706
1.04069
1.04486
1.04948
1.05431
1.05876
1.06175
1.03713
1.03919
1.04018
1.03933
1.03758
1.03555
1.0335
1.03155
1.02975
1.02812
1.02666
1.02538
1.02424
1.02324
1.02236
1.02159
1.0209
1.02029
1.01975
1.01927
1.01884
1.01846
1.01812
1.01782
1.01755
1.0173
1.01709
1.01689
1.01672
1.01657
1.01643
1.01631
1.01621
1.01612
1.01605
1.01599
1.01594
1.01591
1.01588
1.01587
1.01587
1.01588
1.01591
1.01594
1.01599
1.01605
1.01612
1.01621
1.01631
1.01643
1.01657
1.01672
1.01689
1.01709
1.0173
1.01755
1.01782
1.01812
1.01846
1.01884
1.01927
1.01975
1.02029
1.0209
1.02159
1.02236
1.02324
1.02424
1.02538
1.02666
1.02812
1.02975
1.03155
1.0335
1.03555
1.03758
1.03933
1.04018
1.03919
1.03713
1.02813
1.03014
1.03161
1.0319
1.03146
1.03064
1.02962
1.02852
1.0274
1.02632
1.02529
1.02433
1.02345
1.02265
1.02191
1.02125
1.02065
1.02011
1.01963
1.01919
1.01879
1.01843
1.01811
1.01782
1.01756
1.01732
1.01711
1.01692
1.01676
1.01661
1.01647
1.01636
1.01625
1.01617
1.01609
1.01603
1.01599
1.01595
1.01593
1.01592
1.01592
1.01593
1.01595
1.01599
1.01603
1.01609
1.01617
1.01625
1.01636
1.01647
1.01661
1.01676
1.01692
1.01711
1.01732
1.01756
1.01782
1.01811
1.01843
1.01879
1.01919
1.01963
1.02011
1.02065
1.02125
1.02191
1.02265
1.02345
1.02433
1.02529
1.02632
1.0274
1.02852
1.02962
1.03064
1.03146
1.0319
1.03161
1.03014
1.02813
1.02315
1.02472
1.02605
1.02669
1.02683
1.02664
1.02624
1.02569
1.02506
1.02439
1.02371
1.02305
1.0224
1.02179
1.02122
1.02069
1.0202
1.01974
1.01932
1.01894
1.01859
1.01827
1.01798
1.01771
1.01747
1.01725
1.01706
1.01688
1.01672
1.01658
1.01645
1.01634
1.01624
1.01616
1.01609
1.01603
1.01599
1.01595
1.01593
1.01592
1.01592
1.01593
1.01595
1.01599
1.01603
1.01609
1.01616
1.01624
1.01634
1.01645
1.01658
1.01672
1.01688
1.01706
1.01725
1.01747
1.01771
1.01798
1.01827
1.01859
1.01894
1.01932
1.01974
1.0202
1.02069
1.02122
1.02179
1.0224
1.02305
1.02371
1.02439
1.02506
1.02569
1.02624
1.02664
1.02683
1.02669
1.02605
1.02472
1.02315
1.02023
1.02139
1.02246
1.02313
1.02347
1.02357
1.02348
1.02326
1.02294
1.02256
1.02214
1.0217
1.02126
1.02082
1.02039
1.01998
1.01959
1.01923
1.01888
1.01856
1.01827
1.01799
1.01774
1.0175
1.01729
1.0171
1.01692
1.01676
1.01661
1.01648
1.01637
1.01627
1.01618
1.0161
1.01603
1.01598
1.01594
1.0159
1.01588
1.01587
1.01587
1.01588
1.0159
1.01594
1.01598
1.01603
1.0161
1.01618
1.01627
1.01637
1.01648
1.01661
1.01676
1.01692
1.0171
1.01729
1.0175
1.01774
1.01799
1.01827
1.01856
1.01888
1.01923
1.01959
1.01998
1.02039
1.02082
1.02126
1.0217
1.02214
1.02256
1.02294
1.02326
1.02348
1.02357
1.02347
1.02313
1.02246
1.02139
1.02023
1.0183
1.01917
1.02001
1.0206
1.02098
1.0212
1.02127
1.02123
1.0211
1.02091
1.02067
1.0204
1.0201
1.0198
1.0195
1.0192
1.0189
1.01862
1.01835
1.01809
1.01785
1.01763
1.01741
1.01722
1.01703
1.01687
1.01671
1.01657
1.01644
1.01633
1.01623
1.01613
1.01605
1.01598
1.01592
1.01588
1.01584
1.01581
1.01579
1.01578
1.01578
1.01579
1.01581
1.01584
1.01588
1.01592
1.01598
1.01605
1.01613
1.01623
1.01633
1.01644
1.01657
1.01671
1.01687
1.01703
1.01722
1.01741
1.01763
1.01785
1.01809
1.01835
1.01862
1.0189
1.0192
1.0195
1.0198
1.0201
1.0204
1.02067
1.02091
1.0211
1.02123
1.02127
1.0212
1.02098
1.0206
1.02001
1.01917
1.0183
1.01691
1.01757
1.01824
1.01874
1.0191
1.01935
1.01949
1.01955
1.01954
1.01946
1.01934
1.01919
1.01901
1.01881
1.0186
1.01839
1.01818
1.01797
1.01777
1.01757
1.01738
1.0172
1.01703
1.01687
1.01672
1.01658
1.01645
1.01633
1.01622
1.01612
1.01603
1.01595
1.01588
1.01582
1.01577
1.01573
1.01569
1.01567
1.01565
1.01564
1.01564
1.01565
1.01567
1.01569
1.01573
1.01577
1.01582
1.01588
1.01595
1.01603
1.01612
1.01622
1.01633
1.01645
1.01658
1.01672
1.01687
1.01703
1.0172
1.01738
1.01757
1.01777
1.01797
1.01818
1.01839
1.0186
1.01881
1.01901
1.01919
1.01934
1.01946
1.01954
1.01955
1.01949
1.01935
1.0191
1.01874
1.01824
1.01757
1.01691
1.01586
1.01637
1.0169
1.01732
1.01764
1.01789
1.01806
1.01816
1.01821
1.01821
1.01817
1.01809
1.01799
1.01787
1.01774
1.0176
1.01745
1.01731
1.01716
1.01701
1.01687
1.01673
1.01659
1.01647
1.01635
1.01624
1.01613
1.01603
1.01595
1.01586
1.01579
1.01572
1.01566
1.01561
1.01557
1.01553
1.0155
1.01548
1.01547
1.01546
1.01546
1.01547
1.01548
1.0155
1.01553
1.01557
1.01561
1.01566
1.01572
1.01579
1.01586
1.01595
1.01603
1.01613
1.01624
1.01635
1.01647
1.01659
1.01673
1.01687
1.01701
1.01716
1.0173
1.01745
1.0176
1.01774
1.01787
1.01799
1.01809
1.01817
1.01821
1.01821
1.01816
1.01806
1.01789
1.01764
1.01732
1.0169
1.01637
1.01586
1.01501
1.01542
1.01585
1.0162
1.01648
1.01671
1.01688
1.01701
1.01709
1.01713
1.01713
1.01711
1.01707
1.017
1.01693
1.01684
1.01674
1.01664
1.01654
1.01644
1.01633
1.01623
1.01613
1.01604
1.01595
1.01586
1.01578
1.0157
1.01563
1.01557
1.01551
1.01545
1.01541
1.01537
1.01533
1.0153
1.01528
1.01526
1.01525
1.01524
1.01524
1.01525
1.01526
1.01528
1.0153
1.01533
1.01537
1.01541
1.01545
1.01551
1.01557
1.01563
1.0157
1.01578
1.01586
1.01595
1.01604
1.01613
1.01623
1.01633
1.01644
1.01654
1.01664
1.01674
1.01684
1.01693
1.017
1.01707
1.01711
1.01713
1.01712
1.01709
1.01701
1.01688
1.01671
1.01648
1.0162
1.01585
1.01542
1.01501
1.01432
1.01465
1.01499
1.01529
1.01553
1.01574
1.0159
1.01603
1.01612
1.01619
1.01622
1.01624
1.01623
1.0162
1.01617
1.01612
1.01606
1.016
1.01594
1.01587
1.0158
1.01573
1.01566
1.01559
1.01552
1.01546
1.0154
1.01534
1.01529
1.01524
1.01519
1.01515
1.01512
1.01508
1.01506
1.01503
1.01501
1.015
1.01499
1.01499
1.01499
1.01499
1.015
1.01501
1.01503
1.01506
1.01508
1.01512
1.01515
1.01519
1.01524
1.01529
1.01534
1.0154
1.01546
1.01552
1.01559
1.01566
1.01573
1.0158
1.01587
1.01594
1.016
1.01606
1.01612
1.01617
1.0162
1.01623
1.01624
1.01622
1.01619
1.01612
1.01603
1.0159
1.01574
1.01553
1.01529
1.01499
1.01465
1.01432
1.01372
1.01399
1.01428
1.01453
1.01474
1.01492
1.01507
1.0152
1.01529
1.01537
1.01542
1.01545
1.01547
1.01547
1.01546
1.01545
1.01542
1.01539
1.01535
1.01531
1.01526
1.01522
1.01517
1.01513
1.01508
1.01504
1.015
1.01496
1.01492
1.01488
1.01485
1.01482
1.0148
1.01477
1.01475
1.01474
1.01472
1.01471
1.0147
1.0147
1.0147
1.0147
1.01471
1.01472
1.01474
1.01475
1.01477
1.0148
1.01482
1.01485
1.01488
1.01492
1.01496
1.015
1.01504
1.01508
1.01513
1.01517
1.01522
1.01526
1.01531
1.01535
1.01539
1.01542
1.01545
1.01546
1.01547
1.01547
1.01545
1.01542
1.01537
1.01529
1.0152
1.01507
1.01492
1.01474
1.01453
1.01428
1.01399
1.01372
1.01321
1.01343
1.01367
1.01388
1.01406
1.01422
1.01436
1.01447
1.01457
1.01465
1.01471
1.01475
1.01479
1.01481
1.01482
1.01482
1.01481
1.0148
1.01478
1.01476
1.01474
1.01472
1.01469
1.01467
1.01464
1.01461
1.01459
1.01456
1.01454
1.01451
1.01449
1.01447
1.01445
1.01444
1.01442
1.01441
1.0144
1.0144
1.01439
1.01439
1.01439
1.01439
1.0144
1.0144
1.01441
1.01442
1.01444
1.01445
1.01447
1.01449
1.01451
1.01454
1.01456
1.01459
1.01461
1.01464
1.01467
1.01469
1.01472
1.01474
1.01476
1.01478
1.0148
1.01481
1.01482
1.01482
1.01481
1.01479
1.01475
1.01471
1.01465
1.01457
1.01447
1.01436
1.01422
1.01406
1.01388
1.01367
1.01343
1.01321
1.01275
1.01294
1.01314
1.01331
1.01347
1.01361
1.01373
1.01384
1.01393
1.01401
1.01407
1.01412
1.01416
1.01419
1.01422
1.01423
1.01424
1.01425
1.01425
1.01424
1.01424
1.01423
1.01422
1.0142
1.01419
1.01418
1.01417
1.01415
1.01414
1.01413
1.01412
1.0141
1.01409
1.01409
1.01408
1.01407
1.01407
1.01406
1.01406
1.01406
1.01406
1.01406
1.01406
1.01407
1.01407
1.01408
1.01409
1.01409
1.0141
1.01412
1.01413
1.01414
1.01415
1.01417
1.01418
1.01419
1.0142
1.01422
1.01423
1.01424
1.01424
1.01425
1.01425
1.01424
1.01423
1.01422
1.01419
1.01416
1.01412
1.01407
1.01401
1.01393
1.01384
1.01373
1.01361
1.01347
1.01331
1.01314
1.01294
1.01275
1.01234
1.01249
1.01266
1.01281
1.01295
1.01307
1.01318
1.01327
1.01336
1.01343
1.0135
1.01355
1.01359
1.01363
1.01366
1.01369
1.01371
1.01372
1.01373
1.01374
1.01375
1.01375
1.01375
1.01375
1.01375
1.01375
1.01374
1.01374
1.01374
1.01373
1.01373
1.01373
1.01372
1.01372
1.01372
1.01371
1.01371
1.01371
1.01371
1.01371
1.01371
1.01371
1.01371
1.01371
1.01371
1.01372
1.01372
1.01372
1.01373
1.01373
1.01373
1.01374
1.01374
1.01374
1.01375
1.01375
1.01375
1.01375
1.01375
1.01375
1.01374
1.01373
1.01372
1.01371
1.01369
1.01366
1.01363
1.01359
1.01355
1.0135
1.01343
1.01336
1.01327
1.01318
1.01307
1.01295
1.01281
1.01266
1.01249
1.01234
1.01196
1.01209
1.01223
1.01236
1.01247
1.01258
1.01268
1.01276
1.01284
1.01291
1.01297
1.01302
1.01307
1.01311
1.01315
1.01318
1.0132
1.01322
1.01324
1.01326
1.01327
1.01329
1.0133
1.01331
1.01331
1.01332
1.01332
1.01333
1.01333
1.01334
1.01334
1.01334
1.01334
1.01335
1.01335
1.01335
1.01335
1.01335
1.01335
1.01335
1.01335
1.01335
1.01335
1.01335
1.01335
1.01335
1.01335
1.01334
1.01334
1.01334
1.01334
1.01333
1.01333
1.01332
1.01332
1.01331
1.01331
1.0133
1.01329
1.01327
1.01326
1.01324
1.01322
1.0132
1.01318
1.01315
1.01311
1.01307
1.01302
1.01297
1.01291
1.01284
1.01276
1.01268
1.01258
1.01247
1.01236
1.01223
1.01209
1.01196
1.0116
1.01171
1.01183
1.01194
1.01204
1.01214
1.01222
1.0123
1.01237
1.01243
1.01249
1.01254
1.01259
1.01263
1.01266
1.0127
1.01273
1.01275
1.01278
1.0128
1.01282
1.01284
1.01286
1.01287
1.01288
1.0129
1.01291
1.01292
1.01293
1.01294
1.01295
1.01295
1.01296
1.01296
1.01297
1.01297
1.01298
1.01298
1.01298
1.01298
1.01298
1.01298
1.01298
1.01298
1.01297
1.01297
1.01296
1.01296
1.01295
1.01295
1.01294
1.01293
1.01292
1.01291
1.0129
1.01288
1.01287
1.01286
1.01284
1.01282
1.0128
1.01278
1.01275
1.01273
1.0127
1.01266
1.01263
1.01259
1.01254
1.01249
1.01243
1.01237
1.0123
1.01222
1.01214
1.01204
1.01194
1.01183
1.01171
1.0116
1.01126
1.01136
1.01146
1.01156
1.01164
1.01172
1.0118
1.01187
1.01193
1.01199
1.01204
1.01209
1.01213
1.01217
1.01221
1.01225
1.01228
1.01231
1.01234
1.01236
1.01238
1.01241
1.01243
1.01245
1.01247
1.01248
1.0125
1.01252
1.01253
1.01254
1.01255
1.01256
1.01257
1.01258
1.01259
1.01259
1.0126
1.0126
1.01261
1.01261
1.01261
1.01261
1.0126
1.0126
1.01259
1.01259
1.01258
1.01257
1.01256
1.01255
1.01254
1.01253
1.01252
1.0125
1.01248
1.01247
1.01245
1.01243
1.01241
1.01238
1.01236
1.01234
1.01231
1.01228
1.01225
1.01221
1.01217
1.01213
1.01209
1.01204
1.01199
1.01193
1.01187
1.0118
1.01172
1.01164
1.01156
1.01146
1.01136
1.01126
1.01094
1.01102
1.01111
1.01119
1.01127
1.01134
1.0114
1.01146
1.01152
1.01157
1.01162
1.01167
1.01171
1.01175
1.01179
1.01182
1.01185
1.01188
1.01191
1.01194
1.01197
1.01199
1.01201
1.01204
1.01206
1.01208
1.0121
1.01212
1.01213
1.01215
1.01216
1.01218
1.01219
1.0122
1.01221
1.01222
1.01222
1.01223
1.01223
1.01223
1.01223
1.01223
1.01223
1.01222
1.01222
1.01221
1.0122
1.01219
1.01218
1.01216
1.01215
1.01213
1.01212
1.0121
1.01208
1.01206
1.01204
1.01201
1.01199
1.01197
1.01194
1.01191
1.01188
1.01185
1.01182
1.01179
1.01175
1.01171
1.01167
1.01162
1.01157
1.01152
1.01146
1.0114
1.01134
1.01127
1.01119
1.01111
1.01102
1.01094
1.01063
1.0107
1.01078
1.01085
1.01091
1.01097
1.01103
1.01109
1.01114
1.01118
1.01123
1.01127
1.01131
1.01135
1.01138
1.01141
1.01145
1.01148
1.01151
1.01154
1.01156
1.01159
1.01161
1.01164
1.01166
1.01168
1.01171
1.01173
1.01174
1.01176
1.01178
1.01179
1.01181
1.01182
1.01183
1.01184
1.01184
1.01185
1.01185
1.01185
1.01185
1.01185
1.01185
1.01184
1.01184
1.01183
1.01182
1.01181
1.01179
1.01178
1.01176
1.01174
1.01173
1.01171
1.01168
1.01166
1.01164
1.01161
1.01159
1.01156
1.01154
1.01151
1.01148
1.01145
1.01141
1.01138
1.01135
1.01131
1.01127
1.01123
1.01118
1.01114
1.01109
1.01103
1.01097
1.01091
1.01085
1.01078
1.0107
1.01063
1.01034
1.01039
1.01046
1.01052
1.01058
1.01063
1.01068
1.01073
1.01077
1.01081
1.01085
1.01089
1.01093
1.01096
1.011
1.01103
1.01106
1.01109
1.01112
1.01115
1.01117
1.0112
1.01123
1.01125
1.01127
1.0113
1.01132
1.01134
1.01136
1.01138
1.0114
1.01141
1.01143
1.01144
1.01145
1.01146
1.01147
1.01147
1.01148
1.01148
1.01148
1.01148
1.01147
1.01147
1.01146
1.01145
1.01144
1.01143
1.01141
1.0114
1.01138
1.01136
1.01134
1.01132
1.0113
1.01127
1.01125
1.01123
1.0112
1.01117
1.01115
1.01112
1.01109
1.01106
1.01103
1.011
1.01096
1.01093
1.01089
1.01085
1.01081
1.01077
1.01073
1.01068
1.01063
1.01058
1.01052
1.01046
1.01039
1.01034
1.01004
1.01009
1.01015
1.0102
1.01025
1.0103
1.01034
1.01038
1.01042
1.01046
1.0105
1.01053
1.01056
1.0106
1.01063
1.01066
1.01069
1.01071
1.01074
1.01077
1.0108
1.01082
1.01085
1.01087
1.0109
1.01092
1.01094
1.01097
1.01099
1.011
1.01102
1.01104
1.01105
1.01107
1.01108
1.01109
1.0111
1.0111
1.01111
1.01111
1.01111
1.01111
1.0111
1.0111
1.01109
1.01108
1.01107
1.01105
1.01104
1.01102
1.011
1.01099
1.01097
1.01094
1.01092
1.0109
1.01087
1.01085
1.01082
1.0108
1.01077
1.01074
1.01071
1.01069
1.01066
1.01063
1.0106
1.01056
1.01053
1.0105
1.01046
1.01042
1.01038
1.01034
1.0103
1.01025
1.0102
1.01015
1.01009
1.01004
1.00976
1.0098
1.00985
1.00989
1.00993
1.00997
1.01001
1.01005
1.01008
1.01012
1.01015
1.01018
1.01021
1.01024
1.01027
1.0103
1.01033
1.01035
1.01038
1.01041
1.01043
1.01046
1.01048
1.01051
1.01053
1.01055
1.01058
1.0106
1.01062
1.01064
1.01065
1.01067
1.01069
1.0107
1.01071
1.01072
1.01073
1.01073
1.01074
1.01074
1.01074
1.01074
1.01073
1.01073
1.01072
1.01071
1.0107
1.01069
1.01067
1.01065
1.01064
1.01062
1.0106
1.01058
1.01055
1.01053
1.01051
1.01048
1.01046
1.01043
1.01041
1.01038
1.01035
1.01033
1.0103
1.01027
1.01024
1.01021
1.01018
1.01015
1.01012
1.01008
1.01005
1.01001
1.00997
1.00993
1.00989
1.00985
1.0098
1.00976
1.00947
1.00951
1.00955
1.00959
1.00963
1.00966
1.00969
1.00973
1.00976
1.00979
1.00982
1.00985
1.00987
1.0099
1.00993
1.00995
1.00998
1.01
1.01003
1.01005
1.01008
1.0101
1.01013
1.01015
1.01017
1.01019
1.01022
1.01024
1.01026
1.01028
1.01029
1.01031
1.01032
1.01034
1.01035
1.01036
1.01036
1.01037
1.01037
1.01038
1.01038
1.01037
1.01037
1.01036
1.01036
1.01035
1.01034
1.01032
1.01031
1.01029
1.01028
1.01026
1.01024
1.01022
1.01019
1.01017
1.01015
1.01013
1.0101
1.01008
1.01005
1.01003
1.01
1.00998
1.00995
1.00993
1.0099
1.00987
1.00985
1.00982
1.00979
1.00976
1.00973
1.00969
1.00966
1.00963
1.00959
1.00955
1.00951
1.00947
1.0092
1.00923
1.00926
1.00929
1.00933
1.00936
1.00939
1.00941
1.00944
1.00947
1.00949
1.00952
1.00954
1.00957
1.00959
1.00962
1.00964
1.00966
1.00969
1.00971
1.00973
1.00976
1.00978
1.0098
1.00982
1.00984
1.00986
1.00988
1.0099
1.00992
1.00994
1.00995
1.00997
1.00998
1.00999
1.01
1.01001
1.01001
1.01002
1.01002
1.01002
1.01002
1.01001
1.01001
1.01
1.00999
1.00998
1.00997
1.00995
1.00994
1.00992
1.0099
1.00988
1.00986
1.00984
1.00982
1.0098
1.00978
1.00976
1.00973
1.00971
1.00969
1.00966
1.00964
1.00962
1.00959
1.00957
1.00954
1.00952
1.00949
1.00947
1.00944
1.00941
1.00939
1.00936
1.00933
1.00929
1.00926
1.00923
1.0092
1.00892
1.00895
1.00898
1.009
1.00903
1.00906
1.00908
1.00911
1.00913
1.00915
1.00918
1.0092
1.00922
1.00924
1.00927
1.00929
1.00931
1.00933
1.00935
1.00937
1.0094
1.00942
1.00944
1.00946
1.00948
1.0095
1.00952
1.00954
1.00956
1.00957
1.00959
1.0096
1.00962
1.00963
1.00964
1.00965
1.00966
1.00966
1.00966
1.00967
1.00967
1.00966
1.00966
1.00966
1.00965
1.00964
1.00963
1.00962
1.0096
1.00959
1.00957
1.00956
1.00954
1.00952
1.0095
1.00948
1.00946
1.00944
1.00942
1.0094
1.00937
1.00935
1.00933
1.00931
1.00929
1.00927
1.00924
1.00922
1.0092
1.00918
1.00915
1.00913
1.00911
1.00908
1.00906
1.00903
1.009
1.00898
1.00895
1.00892
1.00864
1.00867
1.00869
1.00872
1.00874
1.00876
1.00878
1.0088
1.00883
1.00885
1.00887
1.00889
1.00891
1.00893
1.00895
1.00897
1.00899
1.00901
1.00903
1.00905
1.00907
1.00909
1.00911
1.00912
1.00914
1.00916
1.00918
1.0092
1.00922
1.00923
1.00925
1.00926
1.00927
1.00928
1.00929
1.0093
1.00931
1.00931
1.00932
1.00932
1.00932
1.00932
1.00931
1.00931
1.0093
1.00929
1.00928
1.00927
1.00926
1.00925
1.00923
1.00922
1.0092
1.00918
1.00916
1.00914
1.00912
1.00911
1.00909
1.00907
1.00905
1.00903
1.00901
1.00899
1.00897
1.00895
1.00893
1.00891
1.00889
1.00887
1.00885
1.00883
1.0088
1.00878
1.00876
1.00874
1.00872
1.00869
1.00867
1.00864
1.00837
1.00839
1.00841
1.00843
1.00845
1.00847
1.00849
1.00851
1.00853
1.00854
1.00856
1.00858
1.0086
1.00862
1.00863
1.00865
1.00867
1.00869
1.00871
1.00872
1.00874
1.00876
1.00878
1.0088
1.00881
1.00883
1.00885
1.00886
1.00888
1.0089
1.00891
1.00892
1.00893
1.00894
1.00895
1.00896
1.00897
1.00897
1.00898
1.00898
1.00898
1.00898
1.00897
1.00897
1.00896
1.00895
1.00894
1.00893
1.00892
1.00891
1.0089
1.00888
1.00886
1.00885
1.00883
1.00881
1.0088
1.00878
1.00876
1.00874
1.00872
1.00871
1.00869
1.00867
1.00865
1.00863
1.00862
1.0086
1.00858
1.00856
1.00854
1.00853
1.00851
1.00849
1.00847
1.00845
1.00843
1.00841
1.00839
1.00837
1.00809
1.00811
1.00813
1.00815
1.00816
1.00818
1.0082
1.00821
1.00823
1.00825
1.00826
1.00828
1.00829
1.00831
1.00833
1.00834
1.00836
1.00837
1.00839
1.00841
1.00842
1.00844
1.00846
1.00847
1.00849
1.00851
1.00852
1.00854
1.00855
1.00857
1.00858
1.00859
1.0086
1.00861
1.00862
1.00863
1.00863
1.00864
1.00864
1.00864
1.00864
1.00864
1.00864
1.00863
1.00863
1.00862
1.00861
1.0086
1.00859
1.00858
1.00857
1.00855
1.00854
1.00852
1.00851
1.00849
1.00847
1.00846
1.00844
1.00842
1.00841
1.00839
1.00837
1.00836
1.00834
1.00833
1.00831
1.00829
1.00828
1.00826
1.00825
1.00823
1.00821
1.0082
1.00818
1.00816
1.00815
1.00813
1.00811
1.00809
1.00782
1.00783
1.00785
1.00787
1.00788
1.00789
1.00791
1.00792
1.00794
1.00795
1.00797
1.00798
1.00799
1.00801
1.00802
1.00804
1.00805
1.00807
1.00808
1.0081
1.00811
1.00813
1.00814
1.00816
1.00817
1.00819
1.0082
1.00821
1.00823
1.00824
1.00825
1.00826
1.00827
1.00828
1.00829
1.0083
1.0083
1.00831
1.00831
1.00831
1.00831
1.00831
1.00831
1.0083
1.0083
1.00829
1.00828
1.00827
1.00826
1.00825
1.00824
1.00823
1.00821
1.0082
1.00819
1.00817
1.00816
1.00814
1.00813
1.00811
1.0081
1.00808
1.00807
1.00805
1.00804
1.00802
1.00801
1.00799
1.00798
1.00797
1.00795
1.00794
1.00792
1.00791
1.00789
1.00788
1.00787
1.00785
1.00783
1.00782
1.00755
1.00756
1.00757
1.00759
1.0076
1.00761
1.00762
1.00763
1.00765
1.00766
1.00767
1.00768
1.0077
1.00771
1.00772
1.00773
1.00775
1.00776
1.00777
1.00779
1.0078
1.00782
1.00783
1.00784
1.00786
1.00787
1.00788
1.0079
1.00791
1.00792
1.00793
1.00794
1.00795
1.00796
1.00796
1.00797
1.00798
1.00798
1.00798
1.00798
1.00798
1.00798
1.00798
1.00798
1.00797
1.00796
1.00796
1.00795
1.00794
1.00793
1.00792
1.00791
1.0079
1.00788
1.00787
1.00786
1.00784
1.00783
1.00782
1.0078
1.00779
1.00777
1.00776
1.00775
1.00773
1.00772
1.00771
1.0077
1.00768
1.00767
1.00766
1.00765
1.00763
1.00762
1.00761
1.0076
1.00759
1.00757
1.00756
1.00755
1.00727
1.00728
1.00729
1.00731
1.00732
1.00733
1.00734
1.00735
1.00736
1.00737
1.00738
1.00739
1.0074
1.00741
1.00742
1.00744
1.00745
1.00746
1.00747
1.00748
1.0075
1.00751
1.00752
1.00753
1.00755
1.00756
1.00757
1.00758
1.00759
1.0076
1.00761
1.00762
1.00763
1.00764
1.00764
1.00765
1.00765
1.00766
1.00766
1.00766
1.00766
1.00766
1.00766
1.00765
1.00765
1.00764
1.00764
1.00763
1.00762
1.00761
1.0076
1.00759
1.00758
1.00757
1.00756
1.00755
1.00753
1.00752
1.00751
1.0075
1.00748
1.00747
1.00746
1.00745
1.00744
1.00742
1.00741
1.0074
1.00739
1.00738
1.00737
1.00736
1.00735
1.00734
1.00733
1.00732
1.00731
1.00729
1.00728
1.00727
1.007
1.00701
1.00702
1.00703
1.00703
1.00704
1.00705
1.00706
1.00707
1.00708
1.00709
1.0071
1.00711
1.00712
1.00713
1.00714
1.00715
1.00716
1.00717
1.00718
1.00719
1.0072
1.00722
1.00723
1.00724
1.00725
1.00726
1.00727
1.00728
1.00729
1.0073
1.00731
1.00731
1.00732
1.00733
1.00733
1.00734
1.00734
1.00734
1.00734
1.00734
1.00734
1.00734
1.00734
1.00733
1.00733
1.00732
1.00731
1.00731
1.0073
1.00729
1.00728
1.00727
1.00726
1.00725
1.00724
1.00723
1.00722
1.0072
1.00719
1.00718
1.00717
1.00716
1.00715
1.00714
1.00713
1.00712
1.00711
1.0071
1.00709
1.00708
1.00707
1.00706
1.00705
1.00704
1.00703
1.00703
1.00702
1.00701
1.007
1.00672
1.00673
1.00674
1.00675
1.00675
1.00676
1.00677
1.00678
1.00679
1.00679
1.0068
1.00681
1.00682
1.00683
1.00684
1.00685
1.00685
1.00686
1.00687
1.00688
1.00689
1.0069
1.00691
1.00692
1.00693
1.00694
1.00695
1.00696
1.00697
1.00698
1.00699
1.007
1.007
1.00701
1.00701
1.00702
1.00702
1.00703
1.00703
1.00703
1.00703
1.00703
1.00703
1.00702
1.00702
1.00701
1.00701
1.007
1.007
1.00699
1.00698
1.00697
1.00696
1.00695
1.00694
1.00693
1.00692
1.00691
1.0069
1.00689
1.00688
1.00687
1.00686
1.00685
1.00685
1.00684
1.00683
1.00682
1.00681
1.0068
1.00679
1.00679
1.00678
1.00677
1.00676
1.00675
1.00675
1.00674
1.00673
1.00672
1.00645
1.00645
1.00646
1.00647
1.00647
1.00648
1.00649
1.00649
1.0065
1.00651
1.00652
1.00652
1.00653
1.00654
1.00655
1.00655
1.00656
1.00657
1.00658
1.00659
1.0066
1.0066
1.00661
1.00662
1.00663
1.00664
1.00665
1.00666
1.00667
1.00667
1.00668
1.00669
1.00669
1.0067
1.0067
1.00671
1.00671
1.00671
1.00672
1.00672
1.00672
1.00672
1.00671
1.00671
1.00671
1.0067
1.0067
1.00669
1.00669
1.00668
1.00667
1.00667
1.00666
1.00665
1.00664
1.00663
1.00662
1.00661
1.0066
1.0066
1.00659
1.00658
1.00657
1.00656
1.00655
1.00655
1.00654
1.00653
1.00652
1.00652
1.00651
1.0065
1.00649
1.00649
1.00648
1.00647
1.00647
1.00646
1.00645
1.00645
1.00617
1.00618
1.00618
1.00619
1.00619
1.0062
1.00621
1.00621
1.00622
1.00622
1.00623
1.00624
1.00624
1.00625
1.00626
1.00626
1.00627
1.00628
1.00628
1.00629
1.0063
1.00631
1.00632
1.00632
1.00633
1.00634
1.00635
1.00636
1.00636
1.00637
1.00638
1.00638
1.00639
1.00639
1.0064
1.0064
1.0064
1.00641
1.00641
1.00641
1.00641
1.00641
1.00641
1.0064
1.0064
1.0064
1.00639
1.00639
1.00638
1.00638
1.00637
1.00636
1.00636
1.00635
1.00634
1.00633
1.00632
1.00632
1.00631
1.0063
1.00629
1.00628
1.00628
1.00627
1.00626
1.00626
1.00625
1.00624
1.00624
1.00623
1.00622
1.00622
1.00621
1.00621
1.0062
1.00619
1.00619
1.00618
1.00618
1.00617
1.0059
1.0059
1.0059
1.00591
1.00591
1.00592
1.00592
1.00593
1.00593
1.00594
1.00594
1.00595
1.00596
1.00596
1.00597
1.00597
1.00598
1.00599
1.00599
1.006
1.00601
1.00601
1.00602
1.00603
1.00603
1.00604
1.00605
1.00606
1.00606
1.00607
1.00607
1.00608
1.00608
1.00609
1.00609
1.0061
1.0061
1.0061
1.0061
1.0061
1.0061
1.0061
1.0061
1.0061
1.0061
1.00609
1.00609
1.00608
1.00608
1.00607
1.00607
1.00606
1.00606
1.00605
1.00604
1.00603
1.00603
1.00602
1.00601
1.00601
1.006
1.00599
1.00599
1.00598
1.00597
1.00597
1.00596
1.00596
1.00595
1.00594
1.00594
1.00593
1.00593
1.00592
1.00592
1.00591
1.00591
1.0059
1.0059
1.0059
1.00562
1.00562
1.00562
1.00563
1.00563
1.00564
1.00564
1.00565
1.00565
1.00565
1.00566
1.00566
1.00567
1.00567
1.00568
1.00568
1.00569
1.0057
1.0057
1.00571
1.00571
1.00572
1.00573
1.00573
1.00574
1.00575
1.00575
1.00576
1.00576
1.00577
1.00577
1.00578
1.00578
1.00579
1.00579
1.00579
1.0058
1.0058
1.0058
1.0058
1.0058
1.0058
1.0058
1.0058
1.00579
1.00579
1.00579
1.00578
1.00578
1.00577
1.00577
1.00576
1.00576
1.00575
1.00575
1.00574
1.00573
1.00573
1.00572
1.00571
1.00571
1.0057
1.0057
1.00569
1.00568
1.00568
1.00567
1.00567
1.00566
1.00566
1.00565
1.00565
1.00565
1.00564
1.00564
1.00563
1.00563
1.00562
1.00562
1.00562
1.00534
1.00534
1.00535
1.00535
1.00535
1.00536
1.00536
1.00536
1.00537
1.00537
1.00537
1.00538
1.00538
1.00539
1.00539
1.0054
1.0054
1.00541
1.00541
1.00542
1.00542
1.00543
1.00543
1.00544
1.00544
1.00545
1.00546
1.00546
1.00547
1.00547
1.00548
1.00548
1.00548
1.00549
1.00549
1.00549
1.00549
1.0055
1.0055
1.0055
1.0055
1.0055
1.0055
1.00549
1.00549
1.00549
1.00549
1.00548
1.00548
1.00548
1.00547
1.00547
1.00546
1.00546
1.00545
1.00544
1.00544
1.00543
1.00543
1.00542
1.00542
1.00541
1.00541
1.0054
1.0054
1.00539
1.00539
1.00538
1.00538
1.00537
1.00537
1.00537
1.00536
1.00536
1.00536
1.00535
1.00535
1.00535
1.00534
1.00534
1.00506
1.00506
1.00507
1.00507
1.00507
1.00507
1.00508
1.00508
1.00508
1.00509
1.00509
1.00509
1.0051
1.0051
1.00511
1.00511
1.00511
1.00512
1.00512
1.00513
1.00513
1.00514
1.00514
1.00515
1.00515
1.00516
1.00516
1.00517
1.00517
1.00517
1.00518
1.00518
1.00519
1.00519
1.00519
1.00519
1.0052
1.0052
1.0052
1.0052
1.0052
1.0052
1.0052
1.0052
1.00519
1.00519
1.00519
1.00519
1.00518
1.00518
1.00517
1.00517
1.00517
1.00516
1.00516
1.00515
1.00515
1.00514
1.00514
1.00513
1.00513
1.00512
1.00512
1.00511
1.00511
1.00511
1.0051
1.0051
1.00509
1.00509
1.00509
1.00508
1.00508
1.00508
1.00507
1.00507
1.00507
1.00507
1.00506
1.00506
1.00478
1.00478
1.00479
1.00479
1.00479
1.00479
1.0048
1.0048
1.0048
1.0048
1.00481
1.00481
1.00481
1.00482
1.00482
1.00482
1.00483
1.00483
1.00483
1.00484
1.00484
1.00485
1.00485
1.00486
1.00486
1.00486
1.00487
1.00487
1.00488
1.00488
1.00488
1.00489
1.00489
1.00489
1.0049
1.0049
1.0049
1.0049
1.0049
1.0049
1.0049
1.0049
1.0049
1.0049
1.0049
1.0049
1.00489
1.00489
1.00489
1.00488
1.00488
1.00488
1.00487
1.00487
1.00486
1.00486
1.00486
1.00485
1.00485
1.00484
1.00484
1.00483
1.00483
1.00483
1.00482
1.00482
1.00482
1.00481
1.00481
1.00481
1.0048
1.0048
1.0048
1.00479
1.00479
1.00479
1.00479
1.00479
1.00478
1.00478
1.0045
1.0045
1.0045
1.00451
1.00451
1.00451
1.00451
1.00451
1.00452
1.00452
1.00452
1.00452
1.00453
1.00453
1.00453
1.00454
1.00454
1.00454
1.00455
1.00455
1.00455
1.00456
1.00456
1.00457
1.00457
1.00457
1.00458
1.00458
1.00458
1.00459
1.00459
1.00459
1.0046
1.0046
1.0046
1.0046
1.0046
1.0046
1.00461
1.00461
1.00461
1.00461
1.0046
1.0046
1.0046
1.0046
1.0046
1.0046
1.00459
1.00459
1.00459
1.00458
1.00458
1.00458
1.00457
1.00457
1.00457
1.00456
1.00456
1.00455
1.00455
1.00455
1.00454
1.00454
1.00454
1.00453
1.00453
1.00453
1.00452
1.00452
1.00452
1.00452
1.00451
1.00451
1.00451
1.00451
1.00451
1.0045
1.0045
1.0045
1.00422
1.00422
1.00422
1.00423
1.00423
1.00423
1.00423
1.00423
1.00423
1.00424
1.00424
1.00424
1.00424
1.00425
1.00425
1.00425
1.00425
1.00426
1.00426
1.00426
1.00427
1.00427
1.00427
1.00428
1.00428
1.00428
1.00429
1.00429
1.00429
1.00429
1.0043
1.0043
1.0043
1.0043
1.00431
1.00431
1.00431
1.00431
1.00431
1.00431
1.00431
1.00431
1.00431
1.00431
1.00431
1.00431
1.0043
1.0043
1.0043
1.0043
1.00429
1.00429
1.00429
1.00429
1.00428
1.00428
1.00428
1.00427
1.00427
1.00427
1.00426
1.00426
1.00426
1.00425
1.00425
1.00425
1.00425
1.00424
1.00424
1.00424
1.00424
1.00423
1.00423
1.00423
1.00423
1.00423
1.00423
1.00422
1.00422
1.00422
1.00394
1.00394
1.00394
1.00394
1.00394
1.00395
1.00395
1.00395
1.00395
1.00395
1.00395
1.00396
1.00396
1.00396
1.00396
1.00397
1.00397
1.00397
1.00397
1.00398
1.00398
1.00398
1.00398
1.00399
1.00399
1.00399
1.004
1.004
1.004
1.004
1.00401
1.00401
1.00401
1.00401
1.00401
1.00402
1.00402
1.00402
1.00402
1.00402
1.00402
1.00402
1.00402
1.00402
1.00402
1.00401
1.00401
1.00401
1.00401
1.00401
1.004
1.004
1.004
1.004
1.00399
1.00399
1.00399
1.00398
1.00398
1.00398
1.00398
1.00397
1.00397
1.00397
1.00397
1.00396
1.00396
1.00396
1.00396
1.00395
1.00395
1.00395
1.00395
1.00395
1.00395
1.00394
1.00394
1.00394
1.00394
1.00394
1.00366
1.00366
1.00366
1.00366
1.00366
1.00366
1.00366
1.00367
1.00367
1.00367
1.00367
1.00367
1.00367
1.00368
1.00368
1.00368
1.00368
1.00368
1.00369
1.00369
1.00369
1.00369
1.0037
1.0037
1.0037
1.0037
1.00371
1.00371
1.00371
1.00371
1.00372
1.00372
1.00372
1.00372
1.00372
1.00372
1.00372
1.00372
1.00373
1.00373
1.00373
1.00373
1.00372
1.00372
1.00372
1.00372
1.00372
1.00372
1.00372
1.00372
1.00371
1.00371
1.00371
1.00371
1.0037
1.0037
1.0037
1.0037
1.00369
1.00369
1.00369
1.00369
1.00368
1.00368
1.00368
1.00368
1.00368
1.00367
1.00367
1.00367
1.00367
1.00367
1.00367
1.00366
1.00366
1.00366
1.00366
1.00366
1.00366
1.00366
1.00338
1.00338
1.00338
1.00338
1.00338
1.00338
1.00338
1.00338
1.00338
1.00339
1.00339
1.00339
1.00339
1.00339
1.00339
1.00339
1.0034
1.0034
1.0034
1.0034
1.0034
1.00341
1.00341
1.00341
1.00341
1.00342
1.00342
1.00342
1.00342
1.00342
1.00343
1.00343
1.00343
1.00343
1.00343
1.00343
1.00343
1.00343
1.00343
1.00343
1.00343
1.00343
1.00343
1.00343
1.00343
1.00343
1.00343
1.00343
1.00343
1.00343
1.00342
1.00342
1.00342
1.00342
1.00342
1.00341
1.00341
1.00341
1.00341
1.0034
1.0034
1.0034
1.0034
1.0034
1.00339
1.00339
1.00339
1.00339
1.00339
1.00339
1.00339
1.00338
1.00338
1.00338
1.00338
1.00338
1.00338
1.00338
1.00338
1.00338
1.00309
1.0031
1.0031
1.0031
1.0031
1.0031
1.0031
1.0031
1.0031
1.0031
1.0031
1.0031
1.0031
1.00311
1.00311
1.00311
1.00311
1.00311
1.00311
1.00312
1.00312
1.00312
1.00312
1.00312
1.00313
1.00313
1.00313
1.00313
1.00313
1.00313
1.00314
1.00314
1.00314
1.00314
1.00314
1.00314
1.00314
1.00314
1.00314
1.00314
1.00314
1.00314