/*--------------------------------*- C++ -*----------------------------------*\
  =========                 |
  \\      /  F ield         | OpenFOAM: The Open Source CFD Toolbox
   \\    /   O peration     | Website:  https://openfoam.org
    \\  /    A nd           | Version:  11
     \\/     M anipulation  |
\*---------------------------------------------------------------------------*/
FoamFile
{
    format      ascii;
    class       volScalarField;
    location    "100";
    object      C;
}
// * * * * * * * * * * * * * * * * * * * * * * * * * * * * * * * * * * * * * //

dimensions      [0 0 0 1 0 0 0];

internalField   nonuniform List<scalar> 
427520
(
4.72256e-313
3.32113e-312
1.4134e-311
2.05526e-311
2.09718e-312
1.50998e-311
3.41143e-311
8.29809e-312
4.07498e-312
-1.92171e-312
2.60991e-312
2.06651e-311
-1.52872e-311
1.05089e-312
9.70982e-312
-8.09307e-312
-1.97835e-311
1.08723e-312
-5.47788e-312
6.97372e-312
3.23101e-311
8.16753e-312
1.01997e-311
1.13464e-311
2.42017e-312
1.10778e-311
1.39429e-311
2.17298e-311
-3.64378e-312
-1.20953e-312
-1.21425e-311
1.4777e-311
-2.41467e-311
-3.17778e-311
-1.69309e-311
4.91584e-312
-1.48843e-311
1.74653e-312
-6.23808e-312
1.5079e-311
4.7025e-312
-1.03409e-311
-6.75017e-312
-1.81411e-311
-1.13983e-311
9.87983e-313
-7.87486e-312
-2.93136e-311
-1.69807e-311
-6.76031e-312
-3.95062e-312
1.68861e-311
-4.01544e-312
1.20946e-311
2.9535e-312
1.63724e-312
-2.30007e-311
1.46646e-311
-2.82913e-313
7.08801e-312
9.10176e-312
-2.38566e-312
2.30063e-312
-3.55384e-312
7.94757e-312
1.60479e-311
-1.2791e-311
1.8431e-311
-9.86404e-312
4.90483e-312
-8.8819e-312
1.85897e-311
1.96119e-311
1.76582e-311
-9.42913e-312
1.47918e-311
2.24337e-311
2.53747e-311
1.96031e-312
2.15424e-311
-1.61011e-311
1.57849e-312
5.65775e-311
6.55838e-311
9.08813e-312
8.09888e-312
5.42735e-312
-4.01488e-311
-1.84347e-311
9.08138e-312
-7.2623e-312
2.89903e-311
7.70326e-312
2.30216e-311
-3.84936e-312
-9.93539e-312
-1.25569e-311
1.78375e-311
-3.78426e-311
2.25236e-311
8.85763e-311
3.53066e-311
1.67206e-311
1.50141e-311
-2.7587e-312
1.73027e-311
1.7935e-311
2.09747e-311
1.57338e-311
-4.11625e-311
-4.426e-311
-1.26481e-311
-3.71709e-312
1.1052e-311
1.23007e-311
-1.05066e-312
4.60031e-311
3.80514e-311
-4.17741e-311
5.78131e-311
-3.99851e-313
-2.96751e-311
-7.69551e-312
5.33054e-312
-1.38818e-311
-2.88907e-312
-1.86435e-311
-5.64628e-311
-1.16132e-311
6.42088e-312
4.67502e-311
6.2834e-312
-7.49637e-312
-3.25687e-311
-4.87752e-313
3.17702e-311
-4.4234e-311
3.92973e-311
1.83905e-311
2.95034e-311
5.36647e-311
-6.70689e-312
-4.86973e-311
-4.36769e-311
-2.16072e-311
-3.94031e-311
-5.26549e-311
-6.53824e-312
-6.55703e-311
-1.98913e-311
-4.2318e-311
-5.27064e-311
-9.13702e-312
1.72223e-311
9.4125e-313
3.08307e-311
5.86421e-311
3.33002e-311
4.97829e-312
3.61516e-311
1.95511e-312
-5.96473e-312
8.34612e-311
7.51222e-311
4.98892e-311
4.0497e-311
4.19251e-312
-3.28922e-311
-1.06431e-311
6.9859e-312
4.31869e-313
5.10134e-311
2.01268e-311
-9.34174e-312
-9.24339e-312
9.33006e-312
1.29754e-311
2.47255e-311
1.53787e-311
6.73016e-311
-9.70637e-312
6.56814e-312
-2.5124e-311
4.19585e-311
2.85495e-311
3.93033e-311
6.75886e-312
2.3528e-311
8.14056e-312
-3.93588e-311
-4.02359e-311
-5.04224e-311
-5.55957e-311
4.2367e-312
-3.99088e-312
-1.01236e-311
3.26263e-311
5.5731e-311
6.5036e-311
6.85757e-311
1.3906e-311
-1.38615e-311
-2.98964e-311
-3.78122e-311
-2.37906e-311
-8.20885e-312
-4.16448e-311
-2.65874e-311
2.75745e-311
-6.99143e-312
-2.61129e-311
-3.80501e-312
-1.69127e-311
-1.53782e-311
8.46936e-312
-2.06266e-312
-6.56081e-312
5.51347e-311
4.43368e-311
5.88694e-311
8.22535e-311
-6.87186e-312
-1.866e-311
-3.99026e-311
-2.84167e-311
-4.42158e-311
-7.30066e-311
-3.07424e-311
-4.96804e-311
-3.51944e-311
-7.84749e-311
-1.14553e-310
-4.30707e-311
-4.25976e-311
-4.84069e-312
4.59581e-312
3.07956e-311
6.81648e-311
7.38325e-311
5.99942e-311
1.784e-311
9.30648e-311
1.4136e-310
4.17467e-311
7.02995e-311
5.38443e-311
5.33476e-311
3.19057e-311
9.20726e-313
-2.14537e-313
1.10447e-311
5.40205e-311
7.90957e-311
1.38003e-311
4.42037e-312
3.16558e-311
3.81883e-312
2.05494e-311
3.03952e-311
5.83017e-311
2.48086e-311
3.37077e-311
7.37193e-312
2.78362e-311
2.62498e-311
-2.17927e-311
-3.05168e-311
2.98979e-312
1.61606e-311
-2.45657e-311
-5.954e-311
-1.19262e-310
-6.13043e-311
-2.12552e-311
-8.89416e-312
-8.01389e-311
9.27585e-312
6.38842e-311
9.44158e-311
8.82218e-311
2.33123e-311
-2.14043e-312
-8.16108e-311
-4.1174e-311
-1.62167e-311
-7.30538e-312
-3.16853e-311
-2.03017e-311
3.58613e-311
-6.28326e-311
-3.81566e-311
2.38814e-311
4.88216e-312
4.56632e-313
-2.40194e-311
-3.09546e-311
-1.1198e-311
1.60106e-311
3.73202e-311
6.45167e-311
1.82029e-311
-2.34436e-311
2.89809e-312
-5.52002e-312
-5.60703e-311
-1.02616e-310
-8.11178e-311
-6.99041e-311
-9.22105e-311
-7.29125e-311
-9.94549e-311
-1.0331e-310
-4.34693e-311
-5.48596e-311
-3.79126e-311
-4.2819e-311
7.01902e-311
1.31292e-310
1.46062e-310
1.373e-310
1.71795e-310
1.51297e-310
1.22053e-310
7.34282e-311
4.97556e-311
8.62791e-311
1.34552e-310
9.86916e-311
9.71453e-311
4.50696e-311
1.53575e-311
5.6014e-311
7.37896e-311
4.1999e-311
5.38179e-312
1.32286e-311
-3.36787e-311
-2.42906e-311
-5.55394e-311
-2.31793e-312
6.80752e-311
2.80851e-311
3.23478e-311
3.69626e-311
5.61768e-311
5.11983e-312
1.87823e-311
3.58276e-311
3.24379e-311
-2.70023e-311
-4.06366e-311
-8.43687e-311
-2.76572e-311
-1.23685e-311
-2.28536e-311
-4.41815e-311
2.69809e-311
8.57361e-311
1.26936e-310
1.13307e-310
6.37351e-311
-1.2053e-312
-5.84787e-311
-5.12895e-312
-6.20743e-312
-2.2049e-311
2.26107e-311
2.87298e-311
-3.0424e-311
-8.61585e-311
-3.9146e-311
-2.07416e-311
-1.71195e-311
-3.08386e-311
-2.23201e-311
-4.30315e-312
-1.98122e-311
8.28177e-312
3.48292e-311
7.01541e-311
2.51942e-312
-2.78375e-311
1.30521e-311
-1.68908e-311
-8.11674e-311
-9.66144e-311
-1.01214e-310
-9.42617e-311
-1.10965e-310
-1.00002e-310
-1.05283e-310
-1.30056e-310
-1.15962e-310
-1.68823e-310
-1.35521e-310
-7.27339e-311
1.76276e-311
1.43539e-310
1.06941e-310
-2.39361e-311
1.87802e-310
1.97844e-310
1.97812e-310
1.19692e-310
1.14572e-310
1.72304e-310
1.73573e-310
1.26012e-310
8.05113e-311
5.19071e-311
1.96006e-311
5.00906e-311
6.86406e-311
3.36001e-311
2.74915e-311
1.05726e-311
-1.24787e-311
-1.26349e-311
-4.91431e-311
-1.43947e-311
5.73147e-311
2.15942e-311
1.48461e-311
5.23677e-311
4.96588e-311
3.46547e-311
2.43188e-311
2.66073e-311
3.17e-311
-2.22865e-311
-1.92262e-312
-4.71684e-311
-7.80895e-311
-4.06789e-311
-4.45826e-311
-4.42555e-311
1.8566e-311
6.90117e-311
9.29752e-311
6.54319e-311
8.76539e-311
1.30824e-311
3.40251e-312
-1.06937e-311
-8.83308e-312
-1.0215e-311
3.13773e-311
2.30048e-311
-7.66745e-311
-6.67216e-311
-2.2611e-311
-8.58482e-311
-6.61293e-311
-6.29886e-311
-3.01909e-311
2.21528e-311
-2.64265e-311
1.19628e-311
4.12427e-311
5.09546e-311
-3.17825e-311
-3.30161e-311
2.25293e-311
-1.23338e-311
-8.52009e-311
-9.30257e-311
-1.09291e-310
-1.3964e-310
-1.06767e-310
-1.67658e-310
-1.35928e-310
-1.28617e-310
-1.64327e-310
-1.57902e-310
-7.15464e-311
-2.37923e-311
5.30074e-311
1.89662e-310
1.11502e-310
1.17264e-310
-8.20801e-311
-1.831e-311
1.72418e-310
1.84435e-310
7.99732e-311
1.35476e-310
1.66833e-310
1.56727e-310
8.07291e-311
7.39638e-311
4.06184e-311
5.32677e-311
5.77077e-311
4.43577e-311
7.78638e-311
7.39056e-311
1.22815e-311
-1.05048e-311
-1.7334e-311
1.27344e-311
4.9187e-311
5.93733e-311
1.71166e-311
4.09837e-311
6.38276e-311
3.43988e-311
1.33005e-311
-3.82491e-312
1.20438e-311
2.19188e-311
3.01581e-311
-2.97385e-312
-7.38725e-311
-6.63311e-311
-7.33434e-311
-4.34859e-311
-2.37235e-311
5.48691e-311
7.5462e-311
9.53148e-311
8.23299e-311
4.9025e-311
4.02243e-311
5.6457e-311
-2.10283e-311
4.05847e-311
6.33597e-311
-6.19299e-313
-8.31483e-311
-8.3994e-311
-6.66247e-311
-1.08288e-310
-8.44095e-311
-1.94087e-311
-1.31226e-311
2.57425e-311
-1.79623e-311
2.82553e-311
2.37847e-312
-5.75352e-312
-5.77275e-311
-2.99208e-311
2.03166e-311
2.82848e-311
-6.37784e-311
-9.29615e-311
-9.97842e-311
-1.1953e-310
-1.34293e-310
-1.66191e-310
-1.16776e-310
-1.20607e-310
-1.60099e-310
-1.54828e-310
-1.40041e-311
-4.38073e-312
7.7627e-311
2.48534e-310
2.5067e-310
2.02898e-310
7.2582e-311
1.19326e-312
1.47472e-310
1.19972e-310
6.32179e-311
7.00274e-311
1.99406e-310
2.03068e-310
1.40982e-310
1.13397e-310
8.76463e-311
8.51221e-311
3.18485e-311
4.09545e-311
9.00013e-311
1.04656e-310
2.60241e-311
-1.51118e-311
-3.27261e-311
-3.40573e-311
3.46311e-311
2.24996e-311
6.05052e-312
-4.26366e-312
1.77362e-311
6.44603e-311
5.10598e-311
5.35268e-312
3.88596e-311
4.95801e-312
-9.1164e-312
3.77673e-311
-4.07927e-311
-8.69154e-311
-6.66118e-311
-5.32214e-311
-8.29096e-312
3.52978e-311
8.2371e-311
6.92046e-311
5.64251e-311
5.64894e-312
3.12387e-311
5.82949e-311
1.07993e-311
-7.02304e-312
4.12932e-311
6.99311e-312
-3.26596e-311
-6.71546e-311
-7.62768e-311
-1.87039e-311
-1.96004e-311
3.10156e-311
8.00059e-311
2.48399e-311
-9.00651e-313
4.80044e-311
-3.81141e-311
-4.32366e-311
-7.39129e-311
1.55402e-311
3.07564e-311
-9.3804e-313
-5.77148e-311
-7.75774e-311
-1.16395e-310
-1.40404e-310
-1.56219e-310
-1.01971e-310
-7.69756e-311
-1.08103e-310
-1.47436e-310
-7.44786e-311
-1.53664e-311
2.53362e-311
1.47929e-310
2.41602e-310
3.3554e-310
2.92107e-310
5.41661e-311
-1.15185e-310
1.08788e-310
1.19653e-310
1.03953e-310
7.60591e-311
1.67674e-310
1.84339e-310
1.46634e-310
1.69418e-310
1.06844e-310
1.07489e-310
4.7789e-311
6.79346e-311
7.52012e-311
1.30671e-310
5.4134e-311
9.18893e-312
-4.44769e-311
-3.24448e-311
4.17642e-312
6.28011e-311
4.61177e-311
4.94166e-311
7.09207e-311
5.68636e-311
7.20807e-311
8.94708e-311
6.10859e-311
-7.17852e-312
-1.20479e-311
5.24116e-311
-2.7842e-311
-4.4658e-311
-5.91251e-311
-6.94608e-311
-4.6991e-312
3.04492e-311
6.1862e-311
2.25896e-311
1.7726e-312
-1.81525e-311
2.45836e-312
6.34038e-312
-1.13121e-311
-2.1224e-311
2.1623e-311
-1.54152e-311
-4.0217e-311
-8.15662e-311
-6.81387e-311
-1.10271e-311
4.33612e-311
9.19133e-311
9.88559e-311
9.06505e-311
3.55554e-311
1.24356e-311
-5.57112e-311
-9.66017e-311
2.96652e-312
2.89941e-311
3.64907e-311
-9.09686e-312
-5.99119e-311
-9.83702e-311
-1.19646e-310
-1.62248e-310
-1.42566e-310
-6.14491e-311
-2.27988e-311
-5.81901e-311
-7.8803e-311
-5.64734e-311
1.16986e-311
8.67775e-311
1.3754e-310
2.58186e-310
3.4594e-310
2.61805e-310
-6.83064e-311
-1.14811e-310
5.31584e-311
1.36321e-310
9.89723e-311
9.81014e-311
1.84987e-310
1.39849e-310
1.00272e-310
1.04733e-310
9.44713e-311
1.21889e-310
8.9824e-311
8.90534e-311
7.91473e-311
1.11662e-310
5.42421e-311
1.50928e-311
-5.63969e-311
-5.03606e-311
-2.33872e-311
5.41497e-311
8.22582e-311
1.29293e-310
1.10841e-310
5.09652e-311
6.76362e-311
1.06046e-310
7.21938e-311
-6.78728e-312
-6.43457e-312
4.20501e-311
2.12359e-311
-5.68245e-311
-7.77036e-311
-6.24202e-311
1.05373e-311
3.26812e-312
5.43912e-311
8.64845e-311
-2.02597e-311
4.11441e-311
-2.67212e-312
3.11469e-311
-7.25076e-311
-5.36105e-311
9.87051e-312
-3.72096e-311
-3.64214e-311
-1.16695e-310
-6.56953e-311
-8.99478e-312
3.7858e-311
8.26812e-311
8.87736e-311
6.94285e-311
3.91627e-311
-2.29486e-312
-4.24753e-311
-8.19312e-311
-1.33526e-311
4.58346e-311
3.16213e-311
1.16971e-311
-2.13931e-312
-2.37948e-311
-9.95335e-311
-1.82096e-310
-1.41345e-310
-1.20186e-310
-9.01884e-311
-9.72157e-311
-8.30574e-311
-8.60063e-311
1.6311e-311
1.03695e-310
1.03172e-310
2.23864e-310
1.62686e-310
5.73539e-311
-1.43216e-310
-1.08846e-310
5.30975e-311
7.99432e-311
2.99362e-311
2.90768e-311
1.92327e-310
1.28702e-310
1.51697e-310
1.27637e-310
1.28232e-310
1.17906e-310
6.68333e-311
3.58736e-311
4.12303e-312
6.06922e-311
1.0261e-311
-1.74274e-311
-1.48092e-311
-5.56959e-311
-4.96036e-311
3.12076e-311
5.30833e-311
8.5792e-311
8.56112e-311
6.82421e-311
8.68454e-311
1.28374e-310
7.65755e-311
-1.24166e-311
7.27708e-312
-1.951e-311
-1.56004e-311
-1.26165e-310
-1.05535e-310
-2.8724e-311
4.68655e-311
3.94661e-312
8.18893e-312
1.24516e-310
3.74639e-311
6.06885e-311
1.86045e-311
9.7289e-312
-1.35703e-310
-1.37837e-310
-3.27677e-311
-4.97589e-312
-1.04028e-310
-1.64758e-310
-8.48263e-311
-1.194e-311
-4.5621e-311
6.03403e-311
3.15512e-311
4.79638e-311
1.78306e-311
3.65555e-311
-3.99408e-311
-6.79348e-311
-1.66802e-311
2.81423e-311
-7.85782e-313
-9.16745e-312
-1.20899e-310
-9.27051e-311
-9.5499e-311
-1.64277e-310
-1.09107e-310
-7.07126e-311
-9.79754e-311
-8.63437e-311
-2.83134e-311
-1.22832e-310
-3.35891e-311
-6.82105e-311
-7.94802e-311
-5.08722e-311
-1.14928e-310
-3.18479e-310
-3.86431e-311
-6.99054e-311
-1.9952e-311
-9.0965e-311
-1.0534e-310
-7.04287e-311
6.14106e-311
4.83074e-311
7.17454e-311
1.68358e-311
8.94209e-311
6.81438e-311
3.5077e-311
-5.61833e-311
-7.90701e-311
8.44945e-313
1.8235e-311
-2.45387e-311
-2.2511e-311
-6.93534e-312
-3.72578e-311
-9.37436e-312
5.3414e-311
6.26955e-311
1.05995e-310
6.54669e-311
1.25743e-310
1.21999e-310
5.0373e-311
2.43557e-311
-4.2979e-311
-3.38308e-311
-5.75229e-311
-9.44347e-311
-7.45386e-311
-2.37097e-311
4.01868e-311
4.73486e-311
4.33876e-311
1.19497e-310
7.33088e-311
6.68926e-311
-1.89593e-311
3.19363e-311
-1.35557e-310
-1.38466e-310
-2.41127e-311
-3.9558e-312
-6.53528e-311
-9.70219e-311
-6.33744e-311
-3.65069e-311
-2.9519e-311
3.7129e-311
7.62866e-311
8.9789e-311
5.85239e-311
5.14868e-311
-1.75355e-311
-3.31419e-311
-3.57153e-311
1.55348e-312
-3.45411e-311
-5.18688e-311
-1.10722e-310
-1.03574e-310
-1.07051e-310
-9.70723e-311
-7.02777e-311
1.07611e-311
-1.67609e-311
-4.08615e-311
-4.46918e-311
-1.44207e-310
-2.10119e-310
-2.26096e-310
-9.20217e-311
-5.65999e-311
-1.20671e-310
-1.10777e-310
6.24985e-311
4.59346e-311
3.93771e-311
-5.2828e-311
-7.719e-311
-3.4316e-311
3.94929e-311
1.011e-311
3.51811e-312
-4.15332e-311
1.37025e-311
5.79888e-311
3.74786e-311
-2.20731e-311
-9.07185e-311
-3.623e-311
8.44716e-312
-2.40422e-311
-2.9843e-311
-5.9171e-311
-5.06497e-311
-2.40333e-311
3.30466e-311
8.07958e-311
9.96468e-311
1.23051e-310
1.42431e-310
1.11824e-310
4.79365e-311
3.72297e-311
1.96264e-311
-1.24202e-311
-1.00476e-311
-7.88895e-311
-8.14077e-312
-3.13321e-311
4.66584e-311
7.1231e-312
6.05135e-311
8.08039e-311
4.40155e-311
3.413e-311
-1.83036e-311
3.85208e-311
-8.51152e-311
-1.11861e-310
-1.47155e-312
-3.84591e-311
-7.42268e-311
-6.50124e-311
-3.33478e-311
-2.15025e-311
-4.50651e-311
-3.33064e-311
6.56794e-311
6.93395e-311
4.07112e-311
5.05431e-312
-6.31092e-311
-5.55831e-311
1.40443e-312
5.43158e-311
1.35244e-311
-3.92031e-311
-1.35352e-310
-1.13175e-310
-9.64733e-311
-1.25353e-310
-4.60702e-311
-2.83688e-311
4.50265e-311
-3.17176e-311
-7.81334e-311
-1.74775e-310
-3.22702e-310
-2.98945e-310
-1.73369e-310
-4.12361e-311
-8.85163e-311
-1.32321e-310
7.1927e-311
1.09322e-310
7.95693e-311
8.70163e-311
2.76324e-311
2.96183e-311
9.48408e-311
1.63373e-311
-3.10494e-311
-3.34269e-311
2.26014e-311
1.0359e-310
1.03087e-310
-4.44127e-311
-1.11788e-310
-2.22142e-311
4.03788e-312
6.18853e-312
-1.24621e-311
-2.3513e-311
-5.58902e-311
-8.30283e-311
1.37301e-311
6.43057e-311
3.47026e-311
7.70714e-311
9.46783e-311
7.11925e-311
-3.07385e-312
-2.01388e-312
-2.03834e-312
-9.65393e-312
4.45104e-312
-5.77925e-311
1.13876e-311
-8.08709e-311
2.29371e-311
3.36413e-311
7.65939e-311
6.1604e-311
3.56259e-311
2.7998e-311
1.11072e-311
-4.17855e-312
-1.03538e-310
-6.9325e-311
-2.39868e-311
-3.30121e-311
-6.59856e-311
-1.00001e-310
-3.39685e-311
-2.20934e-311
-6.23435e-311
-2.26461e-311
7.5301e-311
4.22168e-311
1.96814e-311
4.44644e-311
-1.10812e-311
2.69517e-311
5.45933e-311
3.06692e-311
-1.55741e-311
-4.74583e-311
-9.31053e-311
-6.75328e-311
-6.54447e-311
-6.78581e-311
-2.66636e-311
-4.9149e-311
3.29979e-311
-5.1997e-311
-1.4362e-310
-2.79648e-310
-3.51136e-310
-3.02517e-310
-2.06844e-310
-2.2153e-310
-3.51128e-310
-4.97615e-310
-5.94535e-311
1.41208e-310
2.40142e-311
1.44717e-310
3.80891e-311
7.23508e-311
6.68715e-311
-2.95049e-311
-8.47642e-311
-4.50446e-311
9.51277e-312
9.84574e-311
8.55614e-311
-3.01274e-311
-9.11734e-311
1.15339e-311
6.25453e-311
4.08365e-311
-9.38417e-313
1.09658e-311
-6.3449e-312
-7.51281e-311
6.12013e-312
6.05297e-311
9.02657e-312
7.40726e-311
1.20249e-310
1.14534e-310
2.15137e-311
-2.88806e-312
-3.10733e-311
-2.61902e-311
1.07653e-312
-3.1226e-311
1.91437e-311
-4.60416e-311
1.94796e-311
3.78086e-311
1.0852e-310
7.17441e-311
1.78615e-311
4.51232e-311
-3.03615e-312
-1.06307e-310
-1.00201e-310
-3.62716e-311
-6.06404e-312
-4.17424e-311
-5.08664e-311
-8.82066e-311
-1.39973e-311
-3.50008e-311
-1.73869e-311
-3.04653e-312
7.25962e-311
4.8768e-311
4.98863e-311
1.06973e-310
9.77926e-311
5.79743e-311
5.84936e-311
4.94802e-311
-5.81616e-311
-6.88562e-311
-3.63142e-311
-2.86906e-311
1.26545e-311
-3.89511e-312
-1.08497e-311
-7.38121e-311
-4.53976e-311
-1.03086e-310
-2.33497e-310
-2.69814e-310
-2.83957e-310
-1.95324e-310
-1.1306e-310
-2.60957e-310
-5.62266e-310
-5.9202e-310
-1.61725e-310
-5.55083e-311
-8.71498e-311
-2.7382e-311
3.34319e-311
7.59364e-312
-3.04073e-311
-1.99395e-311
1.28982e-312
-6.79135e-311
-3.00358e-311
7.52166e-313
4.18823e-311
-1.17421e-311
-7.14177e-311
-7.90405e-312
3.66577e-311
2.4545e-311
1.0507e-311
3.79808e-311
7.00381e-312
-1.07864e-310
-1.00411e-311
3.18492e-311
-3.11821e-311
-1.07396e-311
9.92773e-311
1.15477e-310
1.02405e-310
5.0094e-311
6.9579e-313
-1.78768e-311
1.015e-311
-5.73032e-312
-1.81445e-311
-8.01062e-312
-2.57951e-311
-1.87374e-311
1.01073e-310
7.00036e-311
5.96971e-311
3.37318e-311
-9.49243e-311
-7.73629e-311
-1.1816e-310
-1.33121e-311
-8.81047e-312
-1.46946e-311
-3.50133e-311
-6.59464e-311
5.45537e-312
-3.14972e-311
-2.25087e-311
-8.69273e-312
4.52495e-311
1.48208e-310
9.01596e-311
1.30175e-310
1.14839e-310
7.01925e-311
7.32256e-311
-9.89048e-312
-8.16149e-311
-7.546e-311
-3.2903e-311
-1.2464e-311
3.39784e-311
4.26953e-311
-5.73804e-312
-3.1817e-311
-8.744e-311
-1.1386e-310
-2.03791e-310
-2.48425e-310
-2.53858e-310
-3.18244e-310
-2.09994e-310
-3.64667e-310
-4.28726e-310
-4.14141e-310
2.26139e-310
9.42565e-311
4.19925e-311
4.10546e-311
1.08623e-311
5.77684e-312
-3.56997e-311
-1.80768e-311
3.72607e-311
-6.56805e-311
6.05635e-311
1.94224e-311
5.59957e-311
-9.64778e-311
-8.66679e-311
-5.39461e-311
4.83632e-312
1.70659e-311
3.77683e-311
6.15725e-311
-1.12448e-312
-6.51274e-311
-2.60412e-311
-2.71442e-312
-3.37242e-311
-2.01167e-311
9.74453e-311
1.31568e-310
1.24939e-310
7.07577e-311
7.38412e-311
6.36115e-311
5.27361e-311
1.95646e-312
-2.58469e-311
-7.09239e-312
-4.06659e-311
-6.70324e-311
4.40771e-311
6.22467e-311
7.90593e-311
5.31827e-311
-7.31259e-311
-2.04086e-311
-9.40397e-311
-2.15974e-311
-2.50981e-311
-3.44142e-311
-7.99029e-311
-1.42997e-310
-5.72628e-311
-5.3449e-311
-4.38727e-311
-3.16205e-311
1.51338e-311
8.91458e-311
1.17671e-310
7.65567e-311
1.03158e-310
5.4557e-311
7.09855e-311
2.89397e-311
-4.00894e-311
1.67766e-311
-2.80714e-311
2.44374e-311
1.13815e-310
5.91042e-311
8.8492e-312
-1.85581e-311
-6.04788e-311
-1.05122e-310
-7.32614e-311
-2.4952e-310
-2.1371e-310
-3.22458e-310
-2.52676e-310
-2.62462e-310
-1.52926e-310
-1.92353e-310
3.53593e-310
1.88116e-310
9.89307e-311
3.95463e-311
3.41303e-311
-7.10061e-312
3.3974e-311
3.28123e-311
6.43978e-311
-5.62125e-311
-7.86563e-311
-5.443e-311
-6.55311e-311
-1.48148e-310
-1.77258e-310
-6.49039e-311
-9.9941e-312
5.46306e-311
6.65362e-311
1.56789e-311
-1.56245e-311
-2.12686e-311
-3.32507e-311
-4.18407e-311
-8.10323e-311
-3.20386e-311
2.58003e-311
1.11513e-310
9.57709e-311
5.87006e-311
6.52919e-311
1.1799e-310
4.9743e-311
4.3271e-311
4.47951e-311
1.06247e-312
2.32967e-311
-5.1643e-311
6.32536e-312
5.44054e-311
1.56229e-311
1.49641e-311
-4.45104e-311
-1.38402e-311
-6.52167e-311
-9.59728e-312
-1.70117e-311
-2.50902e-311
-6.50626e-311
-7.02308e-311
-5.30125e-311
-5.96371e-311
-3.24914e-311
-4.82077e-311
-1.15853e-312
5.4554e-311
7.52273e-311
6.2966e-311
1.17489e-310
8.04302e-311
4.83565e-311
1.74672e-311
5.55489e-311
8.59401e-311
1.06683e-311
7.2145e-311
1.48538e-310
1.00446e-310
1.06395e-312
3.06059e-311
-6.2365e-312
-8.18025e-311
-6.89971e-311
-7.4041e-311
-1.16765e-310
-2.54332e-310
-3.02418e-310
-2.43257e-310
-2.89641e-310
-3.2758e-310
2.46498e-310
2.01291e-310
2.01689e-310
1.78265e-310
7.85795e-311
-2.92719e-312
1.58057e-311
7.55018e-311
1.02043e-310
4.44754e-311
-2.58482e-311
-4.43134e-313
-7.0093e-311
-6.4408e-311
-1.29068e-310
-9.69183e-311
-7.6897e-311
5.15988e-311
5.38974e-311
2.36223e-311
-2.69638e-311
2.76919e-311
-4.37937e-311
-1.40022e-310
-1.56578e-310
-7.78626e-311
-2.7894e-312
4.10066e-311
6.48491e-311
3.23239e-311
7.55446e-311
1.14441e-310
8.44605e-311
7.88188e-311
1.6708e-311
-3.47104e-311
-3.86228e-311
-3.28378e-311
-5.22382e-311
1.60764e-311
-2.44591e-311
-5.71829e-311
-8.44848e-311
-4.36885e-311
-8.86573e-311
-2.32761e-311
-1.77346e-311
1.30943e-311
1.7935e-311
-5.49926e-311
-9.80201e-311
-5.46517e-311
6.26805e-312
-1.05433e-311
-2.05289e-311
3.43681e-311
5.85882e-311
6.16208e-311
1.03438e-310
1.24004e-310
2.33995e-311
1.0987e-311
4.11468e-311
7.9342e-311
1.03817e-310
1.08144e-310
1.89073e-310
1.49828e-310
1.3446e-310
8.69832e-311
1.32554e-311
-1.08621e-312
-5.98728e-311
-7.76346e-311
-3.93484e-311
-2.07283e-310
-2.14056e-310
-2.67262e-310
-3.0609e-310
-2.34862e-310
4.99529e-310
4.44903e-310
4.52241e-310
3.6941e-310
1.10943e-310
3.07118e-311
1.9873e-311
-2.68985e-311
7.75806e-311
9.52921e-311
3.27702e-311
1.93004e-311
7.66633e-312
-1.38765e-311
-1.33769e-310
-8.18123e-311
-8.01589e-311
8.42452e-313
1.12369e-310
6.38264e-311
-1.04617e-311
1.00834e-311
-7.18059e-311
-1.70182e-310
-2.07408e-310
-1.19884e-310
-6.54476e-312
2.229e-311
1.20185e-310
2.05176e-311
7.42362e-311
1.35578e-310
1.34692e-310
8.24899e-311
5.54112e-311
5.17544e-312
-9.55572e-312
9.21671e-313
-1.41036e-311
3.96725e-311
-7.00445e-312
-5.25737e-311
-3.85392e-311
-5.15406e-311
-6.44973e-311
-2.1502e-311
-2.99901e-311
-9.2354e-312
7.98761e-312
-3.75394e-311
-8.39859e-311
-5.58736e-311
-5.17717e-313
-2.33521e-311
2.93175e-311
8.40207e-311
6.48649e-311
7.23724e-311
9.01223e-311
1.13036e-310
1.47568e-311
-9.18596e-314
3.2845e-311
3.95192e-311
9.05436e-311
1.91688e-310
2.41647e-310
1.43936e-310
1.64953e-310
1.25595e-310
4.6108e-311
5.62746e-311
-8.61578e-311
-9.70346e-311
-4.82899e-311
-1.87909e-310
2.24286e-311
-2.56049e-311
-4.35592e-311
8.46003e-311
3.28065e-310
3.50877e-310
5.0294e-310
3.84693e-310
1.64326e-310
6.40799e-312
-9.48253e-311
-3.62715e-311
5.55002e-311
6.83097e-311
3.23321e-311
-2.21107e-311
-2.77375e-311
-9.87318e-311
-9.1823e-311
-2.00044e-311
-1.89421e-311
7.94991e-312
8.51243e-311
1.22112e-310
6.48565e-312
-3.55305e-311
-9.98557e-311
-1.6202e-310
-1.48122e-310
-5.79638e-311
4.11002e-311
4.98687e-311
1.18444e-310
2.68478e-311
8.14881e-311
1.50327e-310
1.3792e-310
6.8539e-311
3.60192e-311
7.56391e-311
6.75342e-311
2.10413e-311
7.26939e-311
7.6439e-311
3.80879e-312
-5.91622e-311
-2.49782e-311
-5.8598e-311
-5.04636e-311
4.61116e-312
-2.51789e-311
2.96914e-311
-8.01489e-312
-2.70456e-311
-8.45181e-311
-7.1515e-311
4.7296e-312
-2.67471e-311
5.68509e-311
1.22027e-310
5.74306e-311
7.41046e-311
4.3761e-311
3.95711e-311
-2.92918e-311
-2.74423e-312
9.29975e-312
5.753e-311
1.22261e-310
2.32908e-310
1.8244e-310
1.29804e-310
1.81588e-310
9.14385e-311
6.70724e-312
6.11448e-311
-2.32388e-311
-1.20727e-310
-9.97784e-311
-4.25401e-311
3.35508e-311
2.57708e-311
-2.14038e-310
-1.11623e-310
1.98176e-310
6.7847e-311
2.95082e-310
3.07598e-310
2.224e-310
6.07718e-311
3.82225e-311
-7.86261e-311
6.77142e-312
-4.04304e-311
-1.73873e-311
-2.59126e-311
-1.0231e-310
-1.22335e-310
-3.41973e-311
-1.89995e-311
-5.31447e-312
4.73646e-311
7.30133e-311
1.09576e-310
-2.04929e-311
-4.0869e-311
-5.2928e-311
-1.63239e-310
-1.27296e-310
-3.89138e-311
2.08748e-311
1.00434e-311
8.68624e-311
2.71654e-311
1.221e-310
1.18326e-310
1.2763e-310
6.12439e-311
5.99532e-311
6.07468e-311
7.05721e-311
2.60372e-311
7.05003e-311
7.42723e-311
3.0097e-311
-2.04164e-311
1.41148e-312
-6.95151e-311
-3.15734e-311
6.21723e-312
4.27537e-311
1.05822e-310
-5.24146e-312
-2.54894e-312
-1.06032e-310
-3.84897e-311
-7.62704e-312
-2.79259e-311
1.54354e-311
7.37271e-311
5.21497e-311
1.01105e-310
4.90777e-311
4.22431e-311
-1.34065e-311
-4.0219e-311
1.77114e-311
4.25793e-311
1.02605e-310
1.8356e-310
1.29483e-310
-5.02634e-312
1.31386e-310
4.89607e-311
4.77137e-311
5.37379e-311
-4.3157e-311
-8.29085e-311
-6.65627e-311
9.93214e-311
1.80899e-310
1.55374e-310
1.91152e-310
1.02381e-310
-1.13057e-310
-4.98646e-311
1.31184e-310
3.03194e-310
1.97292e-310
1.46744e-310
5.19749e-311
-9.21042e-311
-6.92163e-311
-1.52977e-310
-2.86034e-311
-3.44698e-311
-8.10254e-311
-7.66945e-311
-3.46842e-311
-2.83817e-311
6.14719e-311
7.86698e-311
1.89609e-311
7.0222e-311
-5.60691e-311
-5.52631e-311
-1.0192e-310
-1.45495e-310
-1.02908e-310
-5.03527e-311
2.07467e-311
3.25315e-311
5.91236e-311
1.48066e-311
6.43194e-311
1.21412e-310
1.2886e-310
8.35068e-311
7.85963e-311
6.85169e-311
7.69728e-311
1.80867e-311
2.6926e-311
3.583e-311
4.31817e-311
2.71081e-312
6.59751e-312
-6.63121e-311
6.46363e-312
1.87528e-311
4.20024e-311
5.0611e-311
-7.95549e-311
-3.91888e-311
-8.9495e-311
-4.74609e-311
3.3472e-311
-2.07052e-311
-2.70852e-311
2.77702e-311
2.53322e-311
3.60167e-311
4.56311e-311
5.20379e-312
-5.58221e-311
-4.34215e-311
6.53815e-312
4.1193e-311
4.78386e-311
1.01488e-310
1.113e-310
4.95401e-311
1.29074e-310
9.79483e-311
-1.76707e-311
4.8087e-311
8.04587e-311
3.57072e-311
1.19149e-310
2.98774e-310
3.29914e-310
3.75168e-310
4.64992e-310
5.96071e-310
-4.02215e-312
5.19421e-311
1.33146e-310
2.3839e-310
2.09705e-310
1.85965e-310
1.19331e-310
-3.85534e-311
-1.45011e-310
-1.8497e-310
-1.01065e-310
-9.95687e-311
-1.12804e-310
-6.69607e-311
-5.84166e-311
-1.98471e-311
2.19001e-311
-1.35158e-311
3.85699e-311
3.92013e-311
-5.85163e-311
-8.366e-311
-1.62377e-310
-1.7787e-310
-1.55188e-310
-4.05277e-311
3.71177e-311
5.25033e-311
2.08763e-311
2.49002e-311
4.71273e-311
1.11754e-310
9.42575e-311
1.117e-310
7.97512e-311
8.3726e-311
8.95735e-311
4.39829e-311
-1.15624e-311
2.65736e-311
1.01386e-311
4.42348e-312
-4.40204e-311
-8.62573e-311
-2.30316e-311
3.39483e-311
7.84255e-311
-1.0011e-311
-6.82827e-311
-9.48424e-311
-1.00082e-310
-9.23926e-311
2.20079e-312
-4.53464e-311
-4.09601e-311
-3.09713e-312
-1.95752e-311
2.33019e-311
2.90169e-311
-4.67896e-311
-9.40211e-311
-6.58422e-311
-5.84063e-311
5.66485e-312
-5.59777e-312
4.3352e-311
6.57696e-311
-2.35525e-311
2.4896e-311
6.30883e-311
3.23663e-311
1.5602e-311
8.71806e-312
-6.84353e-311
1.01769e-310
3.09565e-310
3.57043e-310
3.83282e-310
2.14892e-310
8.13802e-311
-1.074e-310
-1.54542e-311
1.80642e-310
3.8523e-310
3.15734e-310
2.53432e-310
6.9547e-311
2.54895e-311
-1.67636e-310
-1.6383e-310
-1.48383e-310
-7.8247e-311
-1.04963e-310
-2.74177e-311
-1.34731e-311
-6.96275e-311
-1.21222e-311
-2.17127e-311
-1.8445e-311
6.19623e-311
-1.03602e-310
-1.35481e-310
-1.42752e-310
-1.16161e-310
-8.37364e-311
-5.8858e-311
-3.795e-311
6.42675e-311
9.31128e-312
2.16954e-311
5.41675e-311
9.99593e-311
9.3285e-311
1.01688e-310
6.47048e-311
6.56428e-311
1.13736e-310
6.09243e-311
-2.10631e-311
1.46029e-311
7.74085e-312
-2.01876e-311
-6.83282e-311
-6.16274e-311
-8.03048e-314
6.45175e-311
1.28871e-310
-1.04076e-311
-5.81978e-311
-1.14235e-310
-8.02056e-311
-4.69135e-311
2.87078e-311
-8.80363e-312
-3.62368e-311
1.17588e-311
4.37811e-311
4.10211e-311
1.45253e-311
-7.40289e-311
-1.12969e-310
-9.58398e-311
-7.42966e-311
-1.44206e-311
1.21502e-311
9.93651e-312
3.90949e-311
-9.72864e-312
-1.52609e-311
3.61467e-311
2.33481e-311
-4.84111e-311
1.87024e-311
-1.11713e-310
4.15783e-311
1.32608e-310
1.60364e-310
2.22548e-310
2.4842e-310
5.0103e-310
-3.13476e-310
-2.73514e-311
1.43661e-310
2.56661e-310
1.8869e-310
2.51108e-310
7.56726e-311
6.74025e-311
-1.61995e-310
-1.72452e-310
-1.45746e-310
-1.08334e-310
-1.17031e-310
-1.77157e-311
5.12458e-311
-5.41721e-312
-4.87627e-312
-2.99704e-311
-3.2956e-311
5.28254e-311
-8.27845e-311
-1.25861e-310
-1.24664e-310
-8.83921e-311
-1.0718e-310
-8.17204e-312
-2.69661e-311
3.21413e-311
3.9951e-311
-1.61736e-313
1.31386e-311
2.92255e-311
7.10758e-311
8.77131e-311
1.52822e-311
5.20209e-311
8.83911e-311
7.17462e-311
-2.89611e-312
-1.05093e-311
3.01289e-311
1.08339e-311
-3.48657e-311
-5.71235e-311
-2.20581e-311
6.93892e-311
1.31277e-310
-7.45953e-312
-3.98752e-311
-1.28559e-310
-1.06656e-310
-4.30717e-311
-1.03757e-311
-2.56492e-311
-6.03446e-311
2.27018e-311
1.39215e-311
6.14252e-311
2.4466e-311
-4.0705e-311
-1.07881e-310
-9.34287e-311
-8.54965e-311
-8.52991e-311
-1.08059e-310
-4.66658e-311
-7.19744e-311
-5.45602e-311
8.65904e-312
4.4718e-313
-1.03436e-310
-9.44996e-311
3.71623e-312
-1.3447e-310
8.70883e-311
1.01567e-310
-7.46827e-312
1.09841e-310
2.06661e-310
4.80029e-310
-3.02197e-310
1.4224e-310
2.02552e-310
2.76426e-310
1.62325e-310
2.96099e-310
1.86826e-310
1.50113e-310
-1.23336e-310
-1.26667e-310
-1.10416e-310
-1.83006e-310
-1.48383e-310
1.18404e-311
5.84836e-311
5.18277e-311
7.48681e-311
6.08476e-312
-6.41946e-311
3.36035e-311
-5.30243e-311
-1.07882e-310
-5.74046e-311
-1.03183e-310
-8.78108e-311
-1.45669e-311
-1.42942e-311
-8.16873e-312
1.7572e-311
-2.80259e-311
-7.18103e-312
1.41282e-311
3.17607e-311
7.29274e-311
3.89381e-311
5.43211e-311
6.0199e-311
1.09908e-310
3.36509e-311
3.03636e-311
1.46357e-311
5.15481e-311
-1.27942e-311
-4.84584e-311
-9.9894e-312
7.47937e-311
1.24744e-310
7.54574e-312
-4.78367e-311
-1.1542e-310
-7.38328e-311
-1.9134e-311
-1.50432e-311
-6.17726e-311
-5.60008e-311
4.72562e-311
1.16345e-311
7.23256e-311
6.5492e-312
-9.22807e-311
-1.16882e-310
-1.15558e-310
-1.1684e-310
-8.06893e-311
-3.51215e-311
3.72922e-311
-1.53044e-311
-3.05643e-311
-4.9781e-311
-1.07082e-310
-1.22666e-310
-7.56969e-311
-4.45024e-311
-1.86453e-310
-4.94466e-311
-1.22206e-310
-8.97517e-311
-7.27443e-311
-2.59993e-310
-1.02217e-310
9.50566e-311
1.69733e-310
2.36542e-310
2.37388e-310
2.414e-310
1.76824e-310
3.15828e-310
1.96781e-310
4.00006e-311
-1.89676e-311
-1.03851e-310
-1.60549e-310
-1.8189e-310
2.82763e-311
4.92258e-311
9.3716e-311
8.96763e-311
3.5822e-312
-1.27673e-311
3.06007e-311
-3.39872e-311
-4.92668e-311
-9.46618e-312
-7.85179e-311
-8.73523e-311
-4.60829e-311
-5.26302e-311
-1.45031e-311
-3.06373e-311
-1.84397e-311
-2.74828e-311
2.84865e-311
2.78733e-311
8.17293e-311
3.5902e-311
9.63784e-311