/*--------------------------------*- C++ -*----------------------------------*\
  =========                 |
  \\      /  F ield         | OpenFOAM: The Open Source CFD Toolbox
   \\    /   O peration     | Website:  https://openfoam.org
    \\  /    A nd           | Version:  11
     \\/     M anipulation  |
\*---------------------------------------------------------------------------*/
FoamFile
{
    format      ascii;
    class       volScalarField;
    location    "20";
    object      C;
}
// * * * * * * * * * * * * * * * * * * * * * * * * * * * * * * * * * * * * * //

dimensions      [0 0 0 1 0 0 0];

internalField   nonuniform List<scalar> 
332800
(
3.51387e-65
3.44457e-65
3.32785e-65
3.17845e-65
3.0071e-65
2.82201e-65
2.62961e-65
2.435e-65
2.24215e-65
2.05414e-65
1.8733e-65
1.70129e-65
1.53925e-65
1.38789e-65
1.24755e-65
1.11826e-65
9.99879e-66
8.92047e-66
7.94304e-66
7.06097e-66
6.2682e-66
5.55835e-66
4.925e-66
4.36176e-66
3.86245e-66
3.42118e-66
3.0324e-66
2.69093e-66
2.392e-66
2.13127e-66
1.9048e-66
1.70906e-66
1.54092e-66
1.39762e-66
1.27676e-66
1.17628e-66
1.09445e-66
1.02982e-66
9.81268e-67
9.47921e-67
9.29182e-67
9.24713e-67
9.34427e-67
9.58489e-67
9.97315e-67
1.05157e-66
1.12219e-66
1.21035e-66
1.31753e-66
1.44546e-66
1.59618e-66
1.77202e-66
1.97562e-66
2.20992e-66
2.47818e-66
2.78395e-66
3.13105e-66
3.52357e-66
3.96579e-66
4.46215e-66
5.01712e-66
5.63516e-66
6.32048e-66
7.07694e-66
7.90781e-66
8.81545e-66
9.80107e-66
1.08643e-65
1.20026e-65
1.32113e-65
1.44822e-65
1.58036e-65
1.71592e-65
1.85274e-65
1.98801e-65
2.11816e-65
2.23866e-65
2.34374e-65
2.42584e-65
2.4746e-65
1.08736e-64
1.07123e-64
1.04237e-64
1.00369e-64
9.57704e-65
9.06549e-65
8.52045e-65
7.9572e-65
7.38839e-65
6.82432e-65
6.27321e-65
5.74143e-65
5.23375e-65
4.75355e-65
4.30303e-65
3.8834e-65
3.4951e-65
3.13788e-65
2.81103e-65
2.51341e-65
2.24365e-65
2.00015e-65
1.78122e-65
1.58511e-65
1.41006e-65
1.25435e-65
1.11631e-65
9.94373e-66
8.87048e-66
7.92962e-66
7.10853e-66
6.39576e-66
5.78102e-66
5.25514e-66
4.81011e-66
4.43898e-66
4.13582e-66
3.89575e-66
3.71481e-66
3.59002e-66
3.51926e-66
3.50133e-66
3.53586e-66
3.62336e-66
3.76518e-66
3.96352e-66
4.22146e-66
4.54291e-66
4.93271e-66
5.39653e-66
5.941e-66
6.57359e-66
7.30268e-66
8.13752e-66
9.08815e-66
1.01654e-65
1.13805e-65
1.27455e-65
1.42725e-65
1.59736e-65
1.78605e-65
1.99442e-65
2.22344e-65
2.47389e-65
2.74626e-65
3.04071e-65
3.35695e-65
3.69411e-65
4.05064e-65
4.42415e-65
4.81131e-65
5.20762e-65
5.60732e-65
6.00315e-65
6.38623e-65
6.74581e-65
7.06911e-65
7.34106e-65
7.54401e-65
7.65739e-65
1.89196e-64
1.86786e-64
1.82377e-64
1.76357e-64
1.6908e-64
1.60863e-64
1.5199e-64
1.42708e-64
1.33226e-64
1.23724e-64
1.14347e-64
1.05214e-64
9.64169e-65
8.80249e-65
8.00875e-65
7.26371e-65
6.56914e-65
5.92562e-65
5.33276e-65
4.78939e-65
4.29376e-65
3.84368e-65
3.43668e-65
3.07007e-65
2.74112e-65
2.44703e-65
2.18507e-65
1.95261e-65
1.74713e-65
1.56628e-65
1.40784e-65
1.26982e-65
1.1504e-65
1.04792e-65
9.60961e-66
8.88248e-66
8.28708e-66
7.81442e-66
7.45722e-66
7.20991e-66
7.06855e-66
7.03082e-66
7.09596e-66
7.2648e-66
7.5397e-66
7.92456e-66
8.42482e-66
9.04746e-66
9.80101e-66
1.06955e-65
1.17425e-65
1.29551e-65
1.43476e-65
1.59358e-65
1.77367e-65
1.97681e-65
2.20487e-65
2.45975e-65
2.74334e-65
3.05748e-65
3.40388e-65
3.78405e-65
4.19919e-65
4.65011e-65
5.13705e-65
5.65961e-65
6.2165e-65
6.80547e-65
7.42302e-65
8.06428e-65
8.72276e-65
9.39015e-65
1.00562e-64
1.07083e-64
1.13317e-64
1.1909e-64
1.24205e-64
1.28436e-64
1.31535e-64
1.33229e-64
2.79638e-64
2.76428e-64
2.70495e-64
2.62309e-64
2.52316e-64
2.40929e-64
2.28525e-64
2.15438e-64
2.01964e-64
1.88356e-64
1.74828e-64
1.61557e-64
1.48687e-64
1.36327e-64
1.24561e-64
1.13448e-64
1.03024e-64
9.33102e-65
8.43096e-65
7.60148e-65
6.84083e-65
6.14653e-65
5.51553e-65
4.94444e-65
4.42961e-65
3.96732e-65
3.55379e-65
3.18533e-65
2.85838e-65
2.56956e-65
2.31568e-65
2.09379e-65
1.90122e-65
1.73552e-65
1.59453e-65
1.47635e-65
1.37936e-65
1.30217e-65
1.24369e-65
1.20304e-65
1.17962e-65
1.17305e-65
1.18321e-65
1.21021e-65
1.25439e-65
1.31631e-65
1.39678e-65
1.49684e-65
1.61773e-65
1.76093e-65
1.92812e-65
2.12118e-65
2.34219e-65
2.59339e-65
2.87716e-65
3.19598e-65
3.55241e-65
3.94897e-65
4.38817e-65
4.87233e-65
5.40351e-65
5.98342e-65
6.61325e-65
7.2935e-65
8.02384e-65
8.80288e-65
9.62799e-65
1.0495e-64
1.13981e-64
1.23295e-64
1.32791e-64
1.42345e-64
1.51806e-64
1.60996e-64
1.69708e-64
1.77706e-64
1.84726e-64
1.90478e-64
1.94647e-64
1.96902e-64
3.8321e-64
3.79137e-64
3.71559e-64
3.61041e-64
3.48122e-64
3.33312e-64
3.17083e-64
2.99861e-64
2.82026e-64
2.63913e-64
2.45806e-64
2.27947e-64
2.10533e-64
1.93722e-64
1.77636e-64
1.62365e-64
1.47972e-64
1.34492e-64
1.21943e-64
1.10324e-64
9.96208e-65
8.98078e-65
8.08512e-65
7.2711e-65
6.53431e-65
5.8701e-65
5.27372e-65
4.74042e-65
4.26557e-65
3.8447e-65
3.4736e-65
3.14831e-65
2.8652e-65
2.62098e-65
2.41266e-65
2.23765e-65
2.09369e-65
1.97887e-65
1.89164e-65
1.83078e-65
1.79542e-65
1.78505e-65
1.79944e-65
1.83874e-65
1.90339e-65
1.99415e-65
2.1121e-65
2.25863e-65
2.43542e-65
2.64444e-65
2.88793e-65
3.16839e-65
3.48855e-65
3.85132e-65
4.25978e-65
4.71709e-65
5.22645e-65
5.79099e-65
6.41372e-65
7.09732e-65
7.8441e-65
8.65577e-65
9.53327e-65
1.04766e-64
1.14845e-64
1.25544e-64
1.36818e-64
1.48605e-64
1.60818e-64
1.73347e-64
1.86051e-64
1.98762e-64
2.1128e-64
2.23369e-64
2.34763e-64
2.45161e-64
2.54233e-64
2.6162e-64
2.66942e-64
2.69804e-64
5.03342e-64
4.98294e-64
4.88868e-64
4.75732e-64
4.59534e-64
4.40889e-64
4.20373e-64
3.98512e-64
3.75781e-64
3.52597e-64
3.29325e-64
3.06276e-64
2.83709e-64
2.61833e-64
2.40815e-64
2.20781e-64
2.01821e-64
1.83994e-64
1.67332e-64
1.51846e-64
1.37525e-64
1.24346e-64
1.12272e-64
1.0126e-64
9.12572e-65
8.22092e-65
7.40582e-65
6.67462e-65
6.02154e-65
5.44101e-65
4.92769e-65
4.47654e-65
4.08291e-65
3.74252e-65
3.45155e-65
3.20656e-65
3.00462e-65
2.8432e-65
2.72025e-65
2.63415e-65
2.58375e-65
2.5683e-65
2.58753e-65
2.64156e-65
2.73096e-65
2.85668e-65
3.02011e-65
3.223e-65
3.4675e-65
3.7561e-65
4.09166e-65
4.4773e-65
4.91643e-65
5.41269e-65
5.96984e-65
6.59174e-65
7.28221e-65
8.04496e-65
8.8834e-65
9.80056e-65
1.07988e-64
1.18798e-64
1.3044e-64
1.42906e-64
1.56175e-64
1.70202e-64
1.84925e-64
2.00255e-64
2.16074e-64
2.32235e-64
2.48555e-64
2.64817e-64
2.80765e-64
2.96103e-64
3.105e-64
3.23585e-64
3.34955e-64
3.44176e-64
3.50794e-64
3.54338e-64
6.43915e-64
6.37741e-64
6.26185e-64
6.10038e-64
5.90073e-64
5.67029e-64
5.41599e-64
5.14422e-64
4.86077e-64
4.5708e-64
4.27882e-64
3.98872e-64
3.70378e-64
3.42668e-64
3.15958e-64
2.90416e-64
2.66165e-64
2.4329e-64
2.2184e-64
2.01838e-64
1.83283e-64
1.66154e-64
1.50412e-64
1.3601e-64
1.22889e-64
1.10985e-64
1.0023e-64
9.05558e-65
8.18916e-65
7.41698e-65
6.73249e-65
6.12948e-65
5.60216e-65
5.1452e-65
4.75376e-65
4.42355e-65
4.15082e-65
3.93237e-65
3.76557e-65
3.64835e-65
3.57919e-65
3.55716e-65
3.58183e-65
3.65334e-65
3.77235e-65
3.94004e-65
4.1581e-65
4.42871e-65
4.75449e-65
5.13853e-65
5.5843e-65
6.09562e-65
6.67664e-65
7.33172e-65
8.06536e-65
8.88213e-65
9.78648e-65
1.07827e-64
1.18746e-64
1.30654e-64
1.43575e-64
1.57524e-64
1.725e-64
1.88485e-64
2.05445e-64
2.23317e-64
2.42016e-64
2.61423e-64
2.81386e-64
3.01715e-64
3.22181e-64
3.42511e-64
3.62387e-64
3.81446e-64
3.99283e-64
4.15448e-64
4.29456e-64
4.40785e-64
4.48895e-64
4.53228e-64
8.09427e-64
8.01935e-64
7.87888e-64
7.68226e-64
7.4387e-64
7.15702e-64
6.84554e-64
6.51196e-64
6.16327e-64
5.80575e-64
5.44492e-64
5.08556e-64
4.73171e-64
4.38674e-64
4.05339e-64
3.73379e-64
3.42955e-64
3.14181e-64
2.8713e-64
2.61839e-64
2.38315e-64
2.1654e-64
1.96478e-64
1.78074e-64
1.61265e-64
1.45976e-64
1.3213e-64
1.19644e-64
1.08435e-64
9.84235e-65
8.95291e-65
8.16771e-65
7.47968e-65
6.88231e-65
6.36965e-65
5.93641e-65
5.57793e-65
5.29026e-65
5.07009e-65
4.91484e-65
4.82258e-65
4.79211e-65
4.82286e-65
4.91496e-65
5.06918e-65
5.28693e-65
5.57023e-65
5.9217e-65
6.34452e-65
6.84238e-65
7.41946e-65
8.08034e-65
8.82993e-65
9.67341e-65
1.06161e-64
1.16632e-64
1.282e-64
1.40912e-64
1.54811e-64
1.69932e-64
1.86298e-64
2.0392e-64
2.22791e-64
2.42883e-64
2.64144e-64
2.86493e-64
3.09816e-64
3.33961e-64
3.58737e-64
3.83907e-64
4.09186e-64
4.34237e-64
4.58675e-64
4.82058e-64
5.03894e-64
5.23644e-64
5.40724e-64
5.54514e-64
5.64366e-64
5.69622e-64
1.00515e-63
9.96106e-64
9.79122e-64
9.55319e-64
9.25795e-64
8.91603e-64
8.53739e-64
8.13125e-64
7.70603e-64
7.26931e-64
6.82777e-64
6.38723e-64
5.95263e-64
5.52812e-64
5.1171e-64
4.72223e-64
4.34556e-64
3.98857e-64
3.65224e-64
3.33711e-64
3.04337e-64
2.77088e-64
2.51926e-64
2.28796e-64
2.07623e-64
1.88324e-64
1.70809e-64
1.54982e-64
1.40746e-64
1.28005e-64
1.16664e-64
1.06634e-64
9.78293e-65
9.0172e-65
8.35897e-65
7.80182e-65
7.34007e-65
6.96885e-65
6.68413e-65
6.4827e-65
6.3622e-65
6.32107e-65
6.3586e-65
6.47488e-65
6.6708e-65
6.948e-65
7.30889e-65
7.75657e-65
8.29483e-65
8.92804e-65
9.66115e-65
1.04996e-64
1.14491e-64
1.25158e-64
1.37059e-64
1.50253e-64
1.64802e-64
1.80757e-64
1.98168e-64
2.17069e-64
2.37485e-64
2.59422e-64
2.82865e-64
3.07774e-64
3.34077e-64
3.6167e-64
3.90409e-64
4.20103e-64
4.50515e-64
4.81352e-64
5.12268e-64
5.42853e-64
5.72638e-64
6.01092e-64
6.27624e-64
6.51585e-64
6.72279e-64
6.88964e-64
7.0087e-64
7.07215e-64
1.23733e-63
1.22644e-63
1.20597e-63
1.17726e-63
1.14162e-63
1.10031e-63
1.0545e-63
1.00532e-63
9.53764e-64
9.00747e-64
8.47074e-64
7.93447e-64
7.40469e-64
6.88644e-64
6.38387e-64
5.90029e-64
5.43824e-64
4.9996e-64
4.58564e-64
4.19709e-64
3.83426e-64
3.49709e-64
3.18519e-64
2.89795e-64
2.63454e-64
2.39402e-64
2.17534e-64
1.97738e-64
1.79902e-64
1.63911e-64
1.49655e-64
1.37026e-64
1.25924e-64
1.16253e-64
1.07929e-64
1.00872e-64
9.50148e-65
9.02985e-65
8.66738e-65
8.41018e-65
8.25532e-65
8.20089e-65
8.24597e-65
8.39061e-65
8.6358e-65
8.98348e-65
9.43645e-65
9.99838e-65
1.06737e-64
1.14676e-64
1.23859e-64
1.3435e-64
1.46215e-64
1.59527e-64
1.74355e-64
1.90772e-64
2.08843e-64
2.28631e-64
2.50186e-64
2.73549e-64
2.98741e-64
3.25764e-64
3.54594e-64
3.85175e-64
4.17417e-64
4.51186e-64
4.86302e-64
5.2253e-64
5.5958e-64
5.97096e-64
6.34655e-64
6.71764e-64
7.07857e-64
7.42297e-64
7.74374e-64
8.03313e-64
8.2828e-64
8.48393e-64
8.62733e-64
8.70367e-64
1.51336e-63
1.50027e-63
1.47566e-63
1.44113e-63
1.39822e-63
1.34845e-63
1.29322e-63
1.23387e-63
1.17161e-63
1.10752e-63
1.04257e-63
9.77608e-64
9.13363e-64
8.50444e-64
7.89355e-64
7.30501e-64
6.74195e-64
6.20671e-64
5.70088e-64
5.22544e-64
4.78084e-64
4.36707e-64
3.98376e-64
3.63021e-64
3.30552e-64
3.0086e-64
2.73823e-64
2.49313e-64
2.27196e-64
2.07339e-64
1.89611e-64
1.73885e-64
1.60042e-64
1.47968e-64
1.37561e-64
1.28728e-64
1.21387e-64
1.15467e-64
1.10909e-64
1.07665e-64
1.05701e-64
1.04992e-64
1.05527e-64
1.07306e-64
1.1034e-64
1.14651e-64
1.20273e-64
1.27247e-64
1.35627e-64
1.45473e-64
1.56854e-64
1.69842e-64
1.84518e-64
2.00964e-64
2.19262e-64
2.39494e-64
2.61736e-64
2.86059e-64
3.12518e-64
3.41156e-64
3.71996e-64
4.05032e-64
4.40229e-64
4.77516e-64
5.16777e-64
5.57846e-64
6.00501e-64
6.44457e-64
6.89358e-64
7.34775e-64
7.80197e-64
8.25032e-64
8.68599e-64
9.10133e-64
9.48786e-64
9.83631e-64
1.01367e-63
1.03786e-63
1.05509e-63
1.06426e-63
1.84205e-63
1.82635e-63
1.79681e-63
1.75533e-63
1.70377e-63
1.64393e-63
1.5775e-63
1.50606e-63
1.43106e-63
1.35381e-63
1.27546e-63
1.19704e-63
1.11942e-63
1.04333e-63
9.69391e-64
8.98083e-64
8.29794e-64
7.64809e-64
7.03328e-64
6.45477e-64
5.91316e-64
5.40851e-64
4.94043e-64
4.50818e-64
4.11072e-64
3.7468e-64
3.41502e-64
3.11386e-64
2.84178e-64
2.5972e-64
2.37859e-64
2.18444e-64
2.01333e-64
1.86392e-64
1.735e-64
1.62546e-64
1.5343e-64
1.4607e-64
1.40393e-64
1.36343e-64
1.33877e-64
1.32965e-64
1.33595e-64
1.35764e-64
1.39485e-64
1.44785e-64
1.51701e-64
1.60284e-64
1.70594e-64
1.82703e-64
1.96691e-64
2.12644e-64
2.30655e-64
2.50818e-64
2.73232e-64
2.97988e-64
3.25176e-64
3.54873e-64
3.87145e-64
4.22036e-64
4.59568e-64
4.99729e-64
5.42473e-64
5.87708e-64
6.35289e-64
6.85013e-64
7.36608e-64
7.89729e-64
8.43945e-64
8.98739e-64
9.53496e-64
1.00751e-63
1.05995e-63
1.10992e-63
1.15639e-63
1.19826e-63
1.23434e-63
1.26337e-63
1.28404e-63
1.29504e-63
2.23392e-63
2.21509e-63
2.17967e-63
2.12991e-63
2.06803e-63
1.99619e-63
1.9164e-63
1.83055e-63
1.74039e-63
1.64747e-63
1.55318e-63
1.45874e-63
1.3652e-63
1.27345e-63
1.18421e-63
1.0981e-63
1.01556e-63
9.36955e-64
8.62522e-64
7.9242e-64
7.26728e-64
6.65461e-64
6.08579e-64
5.55998e-64
5.07601e-64
4.63241e-64
4.22758e-64
3.85973e-64
3.52706e-64
3.22772e-64
2.95987e-64
2.72177e-64
2.51171e-64
2.32813e-64
2.16956e-64
2.03469e-64
1.92234e-64
1.83152e-64
1.76136e-64
1.71119e-64
1.68049e-64
1.6689e-64
1.67626e-64
1.70254e-64
1.74788e-64
1.81259e-64
1.8971e-64
2.00201e-64
2.12804e-64
2.276e-64
2.44684e-64
2.64157e-64
2.86127e-64
3.10706e-64
3.38005e-64
3.68134e-64
4.01193e-64
4.37272e-64
4.76444e-64
5.18759e-64
5.64237e-64
6.12859e-64
6.64565e-64
7.19239e-64
7.76704e-64
8.3671e-64
8.9893e-64
9.62944e-64
1.02824e-63
1.09418e-63
1.16004e-63
1.22497e-63
1.28799e-63
1.34799e-63
1.40378e-63
1.45402e-63
1.49729e-63
1.53209e-63
1.55688e-63
1.57005e-63
2.70151e-63
2.67894e-63
2.63649e-63
2.57684e-63
2.50265e-63
2.41649e-63
2.32076e-63
2.21773e-63
2.10948e-63
1.99787e-63
1.88457e-63
1.77104e-63
1.65853e-63
1.54812e-63
1.44068e-63
1.33693e-63
1.23743e-63
1.1426e-63
1.05275e-63
9.68061e-64
8.88645e-64
8.14522e-64
7.45649e-64
6.81933e-64
6.23238e-64
5.69395e-64
5.20214e-64
4.7549e-64
4.35007e-64
3.98549e-64
3.659e-64
3.36851e-64
3.11204e-64
2.88769e-64
2.69376e-64
2.52866e-64
2.39102e-64
2.27962e-64
2.19345e-64
2.13169e-64
2.09373e-64
2.07914e-64
2.0877e-64
2.11938e-64
2.17435e-64
2.25294e-64
2.35568e-64
2.48325e-64
2.6365e-64
2.81639e-64
3.02403e-64
3.2606e-64
3.52737e-64
3.82564e-64
4.15671e-64
4.52185e-64
4.92223e-64
5.35889e-64
5.83266e-64
6.34407e-64
6.89333e-64
7.48018e-64
8.10383e-64
8.76286e-64
9.4551e-64
1.01775e-63
1.09262e-63
1.1696e-63
1.24808e-63
1.32731e-63
1.4064e-63
1.48434e-63
1.55995e-63
1.63193e-63
1.69882e-63
1.75904e-63
1.81089e-63
1.85259e-63
1.88228e-63
1.89806e-63
3.2598e-63
3.23277e-63
3.18192e-63
3.11046e-63
3.02156e-63
2.91829e-63
2.80353e-63
2.67999e-63
2.55014e-63
2.41623e-63
2.28024e-63
2.14393e-63
2.0088e-63
1.87613e-63
1.74697e-63
1.62219e-63
1.50247e-63
1.38831e-63
1.28008e-63
1.17802e-63
1.08225e-63
9.92806e-64
9.09648e-64
8.32665e-64
7.617e-64
6.96558e-64
6.37015e-64
5.82829e-64
5.33748e-64
4.89515e-64
4.49876e-64
4.14582e-64
3.83399e-64
3.56104e-64
3.32491e-64
3.12375e-64
2.9559e-64
2.81992e-64
2.71461e-64
2.63899e-64
2.59231e-64
2.57408e-64
2.58401e-64
2.62206e-64
2.68843e-64
2.7835e-64
2.90789e-64
3.0624e-64
3.24801e-64
3.46588e-64
3.71728e-64
4.00362e-64
4.32638e-64
4.68708e-64
5.08726e-64
5.52838e-64
6.01182e-64
6.53878e-64
7.1102e-64
7.72669e-64
8.38843e-64
9.0951e-64
9.84568e-64
1.06385e-63
1.14708e-63
1.2339e-63
1.32384e-63
1.41628e-63
1.51048e-63
1.60554e-63
1.70042e-63
1.79387e-63
1.88451e-63
1.97076e-63
2.05091e-63
2.12304e-63
2.18514e-63
2.23507e-63
2.27061e-63
2.28949e-63
3.9267e-63
3.89434e-63
3.83345e-63
3.74788e-63
3.6414e-63
3.51768e-63
3.38018e-63
3.23213e-63
3.0765e-63
2.91595e-63
2.75287e-63
2.58936e-63
2.42722e-63
2.26798e-63
2.11291e-63
1.96304e-63
1.81918e-63
1.68196e-63
1.5518e-63
1.42901e-63
1.31374e-63
1.20603e-63
1.10583e-63
1.01303e-63
9.27437e-64
8.48823e-64
7.76925e-64
7.11458e-64
6.52123e-64
5.98618e-64
5.50642e-64
5.07901e-64
4.70115e-64
4.3702e-64
4.08372e-64
3.83951e-64
3.6356e-64
3.47027e-64
3.34208e-64
3.24987e-64
3.19275e-64
3.1701e-64
3.1816e-64
3.22719e-64
3.30708e-64
3.42173e-64
3.57185e-64
3.7584e-64
3.98253e-64
4.24559e-64
4.54909e-64
4.89468e-64
5.2841e-64
5.71915e-64
6.20162e-64
6.73324e-64
7.31561e-64
7.95013e-64
8.63789e-64
9.37957e-64
1.01754e-63
1.10248e-63
1.19267e-63
1.28789e-63
1.38783e-63
1.49204e-63
1.59995e-63
1.71083e-63
1.82378e-63
1.93775e-63
2.05145e-63
2.16342e-63
2.272e-63
2.3753e-63
2.47127e-63
2.55763e-63
2.63197e-63
2.69173e-63
2.73425e-63
2.75685e-63
4.72362e-63
4.68489e-63
4.612e-63
4.50954e-63
4.38206e-63
4.2339e-63
4.06923e-63
3.89189e-63
3.70543e-63
3.51306e-63
3.31762e-63
3.12161e-63
2.92721e-63
2.73623e-63
2.55021e-63
2.37038e-63
2.19771e-63
2.03295e-63
1.87663e-63
1.7291e-63
1.59054e-63
1.46103e-63
1.34051e-63
1.22883e-63
1.12578e-63
1.03109e-63
9.4445e-64
8.65524e-64
7.93956e-64
7.29389e-64
6.71466e-64
6.19837e-64
5.74172e-64
5.34155e-64
4.99498e-64
4.69938e-64
4.4524e-64
4.25201e-64
4.09648e-64
3.98442e-64
3.91477e-64
3.8868e-64
3.90011e-64
3.95462e-64
4.05057e-64
4.1885e-64
4.36925e-64
4.59394e-64
4.86393e-64
5.18081e-64
5.54636e-64
5.96254e-64
6.43139e-64
6.95503e-64
7.53558e-64
8.17506e-64
8.87536e-64
9.63811e-64
1.04646e-63
1.13555e-63
1.23112e-63
1.3331e-63
1.44133e-63
1.55558e-63
1.67544e-63
1.8004e-63
1.92975e-63
2.06264e-63
2.19799e-63
2.33451e-63
2.47069e-63
2.60478e-63
2.73478e-63
2.85845e-63
2.97331e-63
3.07667e-63
3.16563e-63
3.23714e-63
3.28801e-63
3.31505e-63
5.67616e-63
5.62981e-63
5.54257e-63
5.41993e-63
5.26732e-63
5.08995e-63
4.89279e-63
4.68044e-63
4.45714e-63
4.22672e-63
3.9926e-63
3.75777e-63
3.52481e-63
3.29592e-63
3.07292e-63
2.85729e-63
2.65021e-63
2.45256e-63
2.26498e-63
2.0879e-63
1.92155e-63
1.76601e-63
1.62121e-63
1.48699e-63
1.3631e-63
1.24922e-63
1.14499e-63
1.04999e-63
9.63825e-64
8.86053e-64
8.16255e-64
7.54018e-64
6.98946e-64
6.50666e-64
6.08834e-64
5.73137e-64
5.43295e-64
5.19066e-64
5.00245e-64
4.86666e-64
4.78201e-64
4.74762e-64
4.76302e-64
4.82811e-64
4.94315e-64
5.10879e-64
5.32601e-64
5.59613e-64
5.92076e-64
6.30177e-64
6.74129e-64
7.24161e-64
7.80516e-64
8.43444e-64
9.13194e-64
9.90006e-64
1.0741e-63
1.16567e-63
1.26487e-63
1.37178e-63
1.48642e-63
1.60872e-63
1.7385e-63
1.87544e-63
2.01909e-63
2.16882e-63
2.32379e-63
2.48295e-63
2.64504e-63
2.8085e-63
2.97153e-63
3.13204e-63
3.28763e-63
3.43563e-63
3.57307e-63
3.69674e-63
3.80317e-63
3.8887e-63
3.94956e-63
3.9819e-63
6.81493e-63
6.75947e-63
6.65507e-63
6.5083e-63
6.32564e-63
6.11334e-63
5.87733e-63
5.62311e-63
5.35577e-63
5.07987e-63
4.79951e-63
4.51826e-63
4.23922e-63
3.965e-63
3.69781e-63
3.43941e-63
3.1912e-63
2.95425e-63
2.72933e-63
2.51695e-63
2.31739e-63
2.13075e-63
1.95696e-63
1.79582e-63
1.64704e-63
1.51025e-63
1.38499e-63
1.27081e-63
1.16721e-63
1.07367e-63
9.89688e-64
9.14782e-64
8.48476e-64
7.90328e-64
7.39926e-64
6.96898e-64
6.60912e-64
6.31677e-64
6.08949e-64
5.9253e-64
5.82268e-64
5.78058e-64
5.79841e-64
5.87605e-64
6.01381e-64
6.21244e-64
6.47312e-64
6.79739e-64
7.18716e-64
7.64466e-64
8.17239e-64
8.77307e-64
9.44958e-64
1.02049e-63
1.10419e-63
1.19635e-63
1.29723e-63
1.40706e-63
1.52601e-63
1.65417e-63
1.79159e-63
1.93815e-63
2.09365e-63
2.2577e-63
2.42976e-63
2.60907e-63
2.79462e-63
2.98518e-63
3.1792e-63
3.37485e-63
3.56996e-63
3.76203e-63
3.9482e-63
4.12527e-63
4.2897e-63
4.43763e-63
4.56494e-63
4.66725e-63
4.74004e-63
4.77871e-63
8.17656e-63
8.11019e-63
7.98526e-63
7.80963e-63
7.59104e-63
7.33696e-63
7.05449e-63
6.75021e-63
6.4302e-63
6.09992e-63
5.76427e-63
5.42752e-63
5.09339e-63
4.765e-63
4.44497e-63
4.13543e-63
3.83806e-63
3.55414e-63
3.28459e-63
3.03002e-63
2.79078e-63
2.56698e-63
2.35855e-63
2.16525e-63
1.98673e-63
1.82256e-63
1.6722e-63
1.53509e-63
1.41066e-63
1.29828e-63
1.19736e-63
1.10732e-63
1.0276e-63
9.5766e-64
8.9702e-64
8.45233e-64
8.01904e-64
7.66686e-64
7.39288e-64
7.19473e-64
7.07059e-64
7.0192e-64
7.03986e-64
7.13241e-64
7.29723e-64
7.53518e-64
7.84767e-64
8.23651e-64
8.70399e-64
9.25272e-64
9.8857e-64
1.06061e-63
1.14174e-63
1.23232e-63
1.33267e-63
1.44316e-63
1.56408e-63
1.6957e-63
1.83822e-63
1.99178e-63
2.15638e-63
2.33193e-63
2.51814e-63
2.71458e-63
2.92057e-63
3.13521e-63
3.35731e-63
3.58536e-63
3.81755e-63
4.05166e-63
4.2851e-63
4.51489e-63
4.7376e-63
4.94941e-63
5.14609e-63
5.32303e-63
5.47529e-63
5.59764e-63
5.68469e-63
5.73094e-63
9.80482e-63
9.72541e-63
9.57593e-63
9.36578e-63
9.10421e-63
8.80018e-63
8.46214e-63
8.09799e-63
7.71499e-63
7.31968e-63
6.91791e-63
6.5148e-63
6.11478e-63
5.72161e-63
5.33842e-63
4.96774e-63
4.6116e-63
4.27153e-63
3.94862e-63
3.64363e-63
3.35695e-63
3.08873e-63
2.83889e-63
2.60715e-63
2.3931e-63
2.1962e-63
2.01584e-63
1.85135e-63
1.70202e-63
1.56713e-63
1.44598e-63
1.33785e-63
1.24209e-63
1.15807e-63
1.08519e-63
1.02294e-63
9.70834e-64
9.28464e-64
8.95481e-64
8.71603e-64
8.56612e-64
8.50358e-64
8.52755e-64
8.63784e-64
8.83488e-64
9.11973e-64
9.494e-64
9.95989e-64
1.05201e-63
1.11777e-63
1.19363e-63
1.27997e-63
1.37719e-63
1.48572e-63
1.60597e-63
1.73833e-63
1.88318e-63
2.04083e-63
2.21152e-63
2.39539e-63
2.59248e-63
2.80264e-63
3.02554e-63
3.26067e-63
3.5072e-63
3.76406e-63
4.02982e-63
4.30269e-63
4.58048e-63
4.86055e-63
5.1398e-63
5.41466e-63
5.68105e-63
5.93438e-63
6.16961e-63
6.38122e-63
6.5633e-63
6.70963e-63
6.81372e-63
6.86903e-63
1.17521e-62
1.16571e-62
1.14783e-62
1.12268e-62
1.09138e-62
1.055e-62
1.01455e-62
9.70979e-63
9.25145e-63
8.77837e-63
8.29752e-63
7.81505e-63
7.33625e-63
6.86561e-63
6.40688e-63
5.9631e-63
5.53669e-63
5.12947e-63
4.74278e-63
4.37749e-63
4.0341e-63
3.71279e-63
3.41345e-63
3.13576e-63
2.87922e-63
2.64321e-63
2.42699e-63
2.22976e-63
2.05068e-63
1.88889e-63
1.74354e-63
1.61381e-63
1.49888e-63
1.39802e-63
1.31052e-63
1.23576e-63
1.17316e-63
1.12224e-63
1.08258e-63
1.05384e-63
1.03576e-63
1.02817e-63
1.03095e-63
1.04409e-63
1.06764e-63
1.10171e-63
1.14652e-63
1.2023e-63
1.26939e-63
1.34815e-63
1.43901e-63
1.54241e-63
1.65886e-63
1.78883e-63
1.93282e-63
2.09132e-63
2.26475e-63
2.45349e-63
2.65782e-63
2.87793e-63
3.11382e-63
3.36533e-63
3.63209e-63
3.91343e-63
4.20841e-63
4.51572e-63
4.83366e-63
5.16009e-63
5.49238e-63
5.82738e-63
6.16139e-63
6.49013e-63
6.80871e-63
7.11168e-63
7.39299e-63
7.64604e-63
7.86377e-63
8.03874e-63
8.16321e-63
8.22934e-63
1.40811e-62
1.39674e-62
1.37534e-62
1.34526e-62
1.30781e-62
1.26429e-62
1.21589e-62
1.16375e-62
1.1089e-62
1.05229e-62
9.9475e-63
9.37011e-63
8.79708e-63
8.23379e-63
7.68473e-63
7.15353e-63
6.64308e-63
6.15557e-63
5.6926e-63
5.25522e-63
4.84402e-63
4.45922e-63
4.10069e-63
3.76807e-63
3.46075e-63
3.17797e-63
2.91888e-63
2.68251e-63
2.46786e-63
2.27392e-63
2.09965e-63
1.94408e-63
1.80624e-63
1.68525e-63
1.58027e-63
1.49055e-63
1.41541e-63
1.35426e-63
1.30661e-63
1.27206e-63
1.25029e-63
1.24108e-63
1.24432e-63
1.25998e-63
1.2881e-63
1.32885e-63
1.38246e-63
1.44922e-63
1.52952e-63
1.6238e-63
1.73257e-63
1.85637e-63
1.99576e-63
2.15135e-63
2.32372e-63
2.51343e-63
2.72101e-63
2.94689e-63
3.19143e-63
3.45482e-63
3.73708e-63
4.03801e-63
4.35716e-63
4.69375e-63
5.04662e-63
5.41423e-63
5.79454e-63
6.18497e-63
6.5824e-63
6.98306e-63
7.38252e-63
7.77565e-63
8.15664e-63
8.51894e-63
8.85532e-63
9.15791e-63
9.41827e-63
9.62748e-63
9.77632e-63
9.85539e-63
1.68667e-62
1.67307e-62
1.64747e-62
1.61148e-62
1.56668e-62
1.5146e-62
1.45669e-62
1.39431e-62
1.32868e-62
1.26095e-62
1.19209e-62
1.123e-62
1.05443e-62
9.87019e-63
9.21308e-63
8.57733e-63
7.96637e-63
7.38285e-63
6.82865e-63
6.30505e-63
5.81276e-63
5.35204e-63
4.92275e-63
4.52443e-63
4.15638e-63
3.8177e-63
3.50734e-63
3.22418e-63
2.96701e-63
2.73461e-63
2.52577e-63
2.33931e-63
2.17408e-63
2.02902e-63
1.90314e-63
1.79553e-63
1.70539e-63
1.63201e-63
1.57481e-63
1.5333e-63
1.5071e-63
1.49596e-63
1.49974e-63
1.51839e-63
1.55198e-63
1.6007e-63
1.66481e-63
1.74468e-63
1.84076e-63
1.95359e-63
2.08375e-63
2.2319e-63
2.39872e-63
2.58491e-63
2.79117e-63
3.01818e-63
3.26656e-63
3.53683e-63
3.82941e-63
4.14452e-63
4.48219e-63
4.84219e-63
5.22396e-63
5.62657e-63
6.04864e-63
6.48832e-63
6.94317e-63
7.41011e-63
7.8854e-63
8.36454e-63
8.84223e-63
9.31235e-63
9.76793e-63
1.02012e-62
1.06034e-62
1.09652e-62
1.12765e-62
1.15267e-62
1.17046e-62
1.17991e-62
2.01986e-62
2.00359e-62
1.97296e-62
1.9299e-62
1.8763e-62
1.814e-62
1.74472e-62
1.67008e-62
1.59156e-62
1.51052e-62
1.42813e-62
1.34546e-62
1.26341e-62
1.18274e-62
1.10411e-62
1.02803e-62
9.54915e-63
8.85078e-63
8.18748e-63
7.56077e-63
6.97151e-63
6.41999e-63
5.90606e-63
5.42919e-63
4.98851e-63
4.58297e-63
4.21132e-63
3.8722e-63
3.56418e-63
3.2858e-63
3.03562e-63
2.81222e-63
2.61424e-63
2.44041e-63
2.28953e-63
2.16053e-63
2.05245e-63
1.96445e-63
1.89581e-63
1.84597e-63
1.81448e-63
1.80102e-63
1.80542e-63
1.82764e-63
1.86776e-63
1.92598e-63
2.00264e-63
2.09816e-63
2.2131e-63
2.34808e-63
2.5038e-63
2.68104e-63
2.88063e-63
3.10338e-63
3.35015e-63
3.62174e-63
3.91887e-63
4.24219e-63
4.59217e-63
4.9691e-63
5.373e-63
5.80359e-63
6.26021e-63
6.74173e-63
7.24652e-63
7.77234e-63
8.31628e-63
8.87468e-63
9.44305e-63
1.0016e-62
1.05872e-62
1.11494e-62
1.16941e-62
1.22121e-62
1.26931e-62
1.31257e-62
1.34979e-62
1.3797e-62
1.40098e-62
1.41228e-62
2.4184e-62
2.39894e-62
2.3623e-62
2.31078e-62
2.24666e-62
2.17212e-62
2.08923e-62
1.99994e-62
1.906e-62
1.80903e-62
1.71046e-62
1.61155e-62
1.51337e-62
1.41686e-62
1.32277e-62
1.23173e-62
1.14423e-62
1.06066e-62
9.81283e-63
9.0628e-63
8.35754e-63
7.69744e-63
7.08229e-63
6.51146e-63
5.98393e-63
5.49843e-63
5.05347e-63
4.64743e-63
4.2786e-63
3.94524e-63
3.64562e-63
3.37805e-63
3.1409e-63
2.93265e-63
2.75188e-63
2.5973e-63
2.46776e-63
2.36226e-63
2.27995e-63
2.22015e-63
2.18231e-63
2.16606e-63
2.1712e-63
2.19768e-63
2.24558e-63
2.31516e-63
2.4068e-63
2.52103e-63
2.65848e-63
2.81992e-63
3.00619e-63
3.2182e-63
3.45693e-63
3.72339e-63
4.01856e-63
4.34341e-63
4.69882e-63
5.08554e-63
5.50414e-63
5.95495e-63
6.43801e-63
6.95298e-63
7.49905e-63
8.0749e-63
8.67855e-63
9.30735e-63
9.9578e-63
1.06255e-62
1.13052e-62
1.19903e-62
1.26733e-62
1.33454e-62
1.39968e-62
1.46162e-62
1.51912e-62
1.57084e-62
1.61535e-62
1.65111e-62
1.67655e-62
1.69006e-62
2.89512e-62
2.87184e-62
2.82801e-62
2.76638e-62
2.68967e-62
2.6005e-62
2.50133e-62
2.3945e-62
2.28212e-62
2.16611e-62
2.04818e-62
1.92983e-62
1.81237e-62
1.69689e-62
1.58431e-62
1.47538e-62
1.37069e-62
1.27069e-62
1.1757e-62
1.08595e-62
1.00155e-62
9.22549e-63
8.48928e-63
7.80607e-63
7.17467e-63
6.59353e-63
6.0609e-63
5.57482e-63
5.13327e-63
4.73415e-63
4.3754e-63
4.055e-63
3.77101e-63
3.52159e-63
3.30507e-63
3.11989e-63
2.96469e-63
2.83826e-63
2.73959e-63
2.66786e-63
2.62242e-63
2.60283e-63
2.60884e-63
2.64039e-63
2.69758e-63
2.78072e-63
2.89026e-63
3.02683e-63
3.1912e-63
3.38426e-63
3.60701e-63
3.86057e-63
4.14609e-63
4.46477e-63
4.8178e-63
5.20632e-63
5.63137e-63
6.09386e-63
6.59447e-63
7.1336e-63
7.71128e-63
8.32711e-63
8.98012e-63
9.66872e-63
1.03906e-62
1.11425e-62
1.19202e-62
1.27186e-62
1.35313e-62
1.43505e-62
1.51671e-62
1.59708e-62
1.67496e-62
1.74901e-62
1.81777e-62
1.87961e-62
1.93282e-62
1.97558e-62
2.00599e-62
2.02215e-62
3.46538e-62
3.43753e-62
3.38509e-62
3.31137e-62
3.2196e-62
3.11291e-62
2.99428e-62
2.86647e-62
2.73202e-62
2.59323e-62
2.45214e-62
2.31056e-62
2.17002e-62
2.03186e-62
1.89716e-62
1.76683e-62
1.64157e-62
1.52191e-62
1.40826e-62
1.30086e-62
1.19987e-62
1.10533e-62
1.01723e-62
9.35471e-63
8.59905e-63
7.90354e-63
7.26604e-63
6.68424e-63
6.1557e-63
5.67793e-63
5.24846e-63
4.86487e-63
4.52484e-63
4.2262e-63
3.96691e-63
3.74513e-63
3.55923e-63
3.40776e-63
3.28951e-63
3.2035e-63
3.14896e-63
3.12536e-63
3.1324e-63
3.16999e-63
3.23828e-63
3.33761e-63
3.46854e-63
3.6318e-63
3.82832e-63
4.05916e-63
4.32554e-63
4.62875e-63
4.97019e-63
5.35128e-63
5.77346e-63
6.23807e-63
6.74637e-63
7.29943e-63
7.89808e-63
8.54277e-63
9.23356e-63
9.96994e-63
1.07508e-62
1.15742e-62
1.24373e-62
1.33364e-62
1.42663e-62
1.5221e-62
1.61926e-62
1.71721e-62
1.81485e-62
1.91094e-62
2.00406e-62
2.0926e-62
2.1748e-62
2.24874e-62
2.31236e-62
2.36348e-62
2.39984e-62
2.41916e-62
4.14753e-62
4.11421e-62
4.05148e-62
3.96328e-62
3.8535e-62
3.72587e-62
3.58395e-62
3.43105e-62
3.2702e-62
3.10416e-62
2.93537e-62
2.76598e-62
2.59784e-62
2.43255e-62
2.2714e-62
2.11546e-62
1.96559e-62
1.82243e-62
1.68644e-62
1.55794e-62
1.4371e-62
1.32398e-62
1.21856e-62
1.12072e-62
1.03029e-62
9.47061e-63
8.70768e-63
8.01138e-63
7.37879e-63
6.80695e-63
6.29289e-63
5.83372e-63
5.42668e-63
5.06914e-63
4.75869e-63
4.49314e-63
4.2705e-63
4.08907e-63
3.9474e-63
3.8443e-63
3.77886e-63
3.75045e-63
3.75869e-63
3.80349e-63
3.88503e-63
4.0037e-63
4.16018e-63
4.35534e-63
4.59028e-63
4.86628e-63
5.18477e-63
5.54733e-63
5.9556e-63
6.4113e-63
6.91612e-63
7.47169e-63
8.0795e-63
8.74083e-63
9.45666e-63
1.02275e-62
1.10535e-62
1.1934e-62
1.28677e-62
1.38522e-62
1.48843e-62
1.59592e-62
1.70712e-62
1.82126e-62
1.93743e-62
2.05454e-62
2.17128e-62
2.28617e-62
2.3975e-62
2.50336e-62
2.60164e-62
2.69004e-62
2.7661e-62
2.82722e-62
2.87069e-62
2.89379e-62
4.96353e-62
4.92367e-62
4.84863e-62
4.74312e-62
4.61178e-62
4.4591e-62
4.28932e-62
4.1064e-62
3.91398e-62
3.71534e-62
3.5134e-62
3.31075e-62
3.10961e-62
2.91185e-62
2.71906e-62
2.5325e-62
2.3532e-62
2.18191e-62
2.01921e-62
1.86546e-62
1.72088e-62
1.58553e-62
1.45939e-62
1.34232e-62
1.23412e-62
1.13452e-62
1.04322e-62
9.59896e-63
8.84192e-63
8.15755e-63
7.54231e-63
6.99273e-63
6.50552e-63
6.07754e-63
5.7059e-63
5.38797e-63
5.12139e-63
4.90411e-63
4.73441e-63
4.61085e-63
4.53236e-63
4.49816e-63
4.50783e-63
4.56124e-63
4.65858e-63
4.80036e-63
4.98736e-63
5.22064e-63
5.5015e-63
5.83146e-63
6.21225e-63
6.64574e-63
7.1339e-63
7.67877e-63
8.28238e-63
8.94667e-63
9.67343e-63
1.04642e-62
1.13201e-62
1.22418e-62
1.32295e-62
1.42823e-62
1.53986e-62
1.65757e-62
1.78097e-62
1.90949e-62
2.04244e-62
2.17891e-62
2.31781e-62
2.45783e-62
2.59741e-62
2.73477e-62
2.86787e-62
2.99443e-62
3.11194e-62
3.21763e-62
3.30856e-62
3.38163e-62
3.43361e-62
3.46122e-62
5.93966e-62
5.89198e-62
5.80221e-62
5.67599e-62
5.51887e-62
5.33622e-62
5.13311e-62
4.91428e-62
4.68408e-62
4.44644e-62
4.20487e-62
3.96243e-62
3.7218e-62
3.48521e-62
3.25456e-62
3.03137e-62
2.81685e-62
2.61193e-62
2.41727e-62
2.23332e-62
2.06034e-62
1.8984e-62
1.74748e-62
1.6074e-62
1.47794e-62
1.35876e-62
1.24952e-62
1.14981e-62
1.05922e-62
9.7732e-63
9.03692e-63
8.37921e-63
7.79609e-63
7.28384e-63
6.83899e-63
6.4584e-63
6.13925e-63
5.87908e-63
5.67583e-63
5.52779e-63
5.43366e-63
5.39253e-63
5.40387e-63
5.46754e-63
5.58377e-63
5.75315e-63
5.97662e-63
6.25544e-63
6.59117e-63
6.98564e-63
7.44088e-63
7.95915e-63
8.5428e-63
9.19426e-63
9.91596e-63
1.07102e-62
1.15792e-62
1.25246e-62
1.3548e-62
1.46501e-62
1.58309e-62
1.70897e-62
1.84244e-62
1.98318e-62
2.13072e-62
2.28438e-62
2.44334e-62