/*--------------------------------*- C++ -*----------------------------------*\
  =========                 |
  \\      /  F ield         | OpenFOAM: The Open Source CFD Toolbox
   \\    /   O peration     | Website:  https://openfoam.org
    \\  /    A nd           | Version:  11
     \\/     M anipulation  |
\*---------------------------------------------------------------------------*/
FoamFile
{
    format      ascii;
    class       volScalarField;
    location    "100";
    object      C;
}
// * * * * * * * * * * * * * * * * * * * * * * * * * * * * * * * * * * * * * //

dimensions      [0 0 0 1 0 0 0];

internalField   nonuniform List<scalar> 
332800
(
2.42946e-257
2.15306e-257
1.76137e-257
1.36548e-257
1.01804e-257
7.37409e-258
5.22829e-258
3.64782e-258
2.51346e-258
1.71411e-258
1.15851e-258
7.76556e-259
5.16436e-259
3.40801e-259
2.2317e-259
1.45009e-259
9.34806e-260
5.97774e-260
3.79091e-260
2.38356e-260
1.48542e-260
9.17213e-261
5.60949e-261
3.3965e-261
2.03517e-261
1.20622e-261
7.06782e-262
4.09202e-262
2.33952e-262
1.32002e-262
7.34513e-263
4.02784e-263
2.175e-263
1.15558e-263
6.03535e-264
3.09569e-264
1.55782e-264
7.68252e-265
3.70813e-265
1.74863e-265
8.0315e-266
3.621e-266
1.60573e-266
7.01331e-267
3.01997e-267
1.28298e-267
5.3803e-268
2.22818e-268
9.1159e-269
3.68537e-269
1.4727e-269
5.81926e-270
2.276e-270
8.84489e-271
3.47141e-271
1.46895e-271
8.13274e-272
7.40043e-272
9.9399e-272
1.53925e-271
2.45727e-271
3.92402e-271
6.22577e-271
9.80085e-271
1.5307e-270
2.37203e-270
3.64757e-270
5.56637e-270
8.42984e-270
1.26673e-269
1.88807e-269
2.78946e-269
4.07984e-269
5.89448e-269
8.38324e-269
1.1675e-268
1.58042e-268
2.05864e-268
2.54306e-268
2.90406e-268
2.00982e-256
1.51156e-256
1.10812e-256
8.05895e-257
5.81805e-257
4.16447e-257
2.95214e-257
2.07136e-257
1.43838e-257
9.88742e-258
6.7304e-258
4.53847e-258
3.03271e-258
2.00869e-258
1.31894e-258
8.58607e-259
5.54138e-259
3.54531e-259
2.24821e-259
1.41277e-259
8.79505e-260
5.42254e-260
3.30981e-260
1.99924e-260
1.19452e-260
7.05619e-261
4.11877e-261
2.37428e-261
1.35081e-261
7.57989e-262
4.19199e-262
2.28311e-262
1.22354e-262
6.44608e-263
3.33533e-263
1.69313e-263
8.42274e-264
4.101e-264
1.95147e-264
9.05574e-265
4.07754e-265
1.80706e-265
7.8904e-266
3.39719e-266
1.44309e-266
6.05096e-267
2.50537e-267
1.02463e-267
4.14023e-268
1.65324e-268
6.52543e-269
2.54695e-269
9.8431e-270
3.78678e-270
1.48426e-270
6.48991e-271
4.00034e-271
4.13645e-271
5.90842e-271
9.32111e-271
1.49585e-270
2.39258e-270
3.79738e-270
5.97573e-270
9.32302e-270
1.44213e-269
2.21174e-269
3.36295e-269
5.0687e-269
7.57112e-269
1.1204e-268
1.64203e-268
2.38253e-268
3.4219e-268
4.86547e-268
6.85319e-268
9.57385e-268
1.32818e-267
1.82863e-267
2.454e-267
1.07765e-255
7.85039e-256
5.38139e-256
3.67919e-256
2.53084e-256
1.74956e-256
1.21177e-256
8.3842e-257
5.7811e-257
3.96551e-257
2.70261e-257
1.82847e-257
1.22732e-257
8.16997e-258
5.39202e-258
3.52737e-258
2.28682e-258
1.46894e-258
9.34689e-259
5.88996e-259
3.67462e-259
2.26895e-259
1.38607e-259
8.37357e-260
5.00039e-260
2.95013e-260
1.71862e-260
9.88008e-261
5.60132e-261
3.1294e-261
1.7216e-261
9.31827e-262
4.95762e-262
2.59007e-262
1.32734e-262
6.6646e-263
3.27443e-263
1.572e-263
7.36195e-264
3.35443e-264
1.47682e-264
6.41262e-265
2.7475e-265
1.16198e-265
4.85228e-266
2.00122e-266
8.15335e-267
3.28211e-267
1.30562e-267
5.1334e-268
1.99531e-268
7.67086e-269
2.92206e-269
1.11157e-269
4.369e-270
2.0136e-270
1.41984e-270
1.65673e-270
2.4781e-270
3.95165e-270
6.34581e-270
1.01276e-269
1.60205e-269
2.51084e-269
3.89922e-269
6.00109e-269
9.15513e-269
1.38478e-268
2.07734e-268
3.09189e-268
4.56869e-268
6.70803e-268
9.79921e-268
1.42681e-267
2.07574e-267
3.02631e-267
4.43516e-267
6.54064e-267
9.61827e-267
1.33005e-266
4.4957e-255
3.34339e-255
2.25598e-255
1.48897e-255
9.8435e-256
6.55615e-256
4.39837e-256
2.96593e-256
2.00521e-256
1.356e-256
9.15303e-257
6.15659e-257
4.12082e-257
2.74164e-257
1.81146e-257
1.18773e-257
7.72333e-258
4.97806e-258
3.17886e-258
2.01019e-258
1.25824e-258
7.79212e-259
4.77205e-259
2.88866e-259
1.72743e-259
1.01993e-259
5.94212e-260
3.41369e-260
1.93244e-260
1.07709e-260
5.90597e-261
3.18292e-261
1.68431e-261
8.74185e-262
4.4448e-262
2.21109e-262
1.07459e-262
5.09416e-263
2.35107e-263
1.05316e-263
4.53971e-264
1.93257e-264
8.12598e-265
3.37525e-265
1.3851e-265
5.61623e-266
2.25036e-266
8.91142e-267
3.48806e-267
1.34966e-267
5.1638e-268
1.95476e-268
7.33981e-269
2.76439e-269
1.09615e-269
5.40794e-270
4.35857e-270
5.56964e-270
8.56681e-270
1.3721e-269
2.19957e-269
3.49889e-269
5.51453e-269
8.6117e-269
1.33305e-268
2.0465e-268
3.11784e-268
4.71733e-268
7.09482e-268
1.06189e-267
1.58388e-267
2.35839e-267
3.51292e-267
5.24709e-267
7.8789e-267
1.19184e-266
1.81646e-266
2.77245e-266
4.13667e-266
5.59578e-266
1.6055e-254
1.22795e-254
8.36401e-255
5.45953e-255
3.52671e-255
2.28347e-255
1.48803e-255
9.76258e-256
6.44054e-256
4.26481e-256
2.82918e-256
1.87674e-256
1.24281e-256
8.20382e-257
5.39099e-257
3.52264e-257
2.28655e-257
1.47305e-257
9.41098e-258
5.95817e-258
3.73554e-258
2.31777e-258
1.42227e-258
8.626e-259
5.1673e-259
3.05527e-259
1.78179e-259
1.02413e-259
5.7969e-260
3.22851e-260
1.76755e-260
9.50304e-261
5.01188e-261
2.5898e-261
1.30946e-261
6.46933e-262
3.11804e-262
1.46351e-262
6.67537e-263
2.94872e-263
1.24895e-263
5.2279e-264
2.1626e-264
8.84093e-265
3.57198e-265
1.42635e-265
5.62969e-266
2.19643e-266
8.47171e-267
3.23083e-267
1.21862e-267
4.54979e-268
1.68713e-268
6.30794e-269
2.53634e-269
1.34512e-269
1.21185e-269
1.64482e-269
2.57095e-269
4.12676e-269
6.60961e-269
1.05017e-268
1.65409e-268
2.58385e-268
4.00595e-268
6.16968e-268
9.44874e-268
1.4406e-267
2.1895e-267
3.32227e-267
5.04136e-267
7.66461e-267
1.16978e-266
1.79543e-266
2.77465e-266
4.3156e-266
6.72693e-266
1.03725e-265
1.53161e-265
2.01264e-265
5.14552e-254
4.03727e-254
2.80114e-254
1.83463e-254
1.17405e-254
7.46805e-255
4.75929e-255
3.04809e-255
1.96304e-255
1.27049e-255
8.25322e-256
5.37349e-256
3.50113e-256
2.27947e-256
1.4809e-256
9.58758e-257
6.17818e-257
3.95815e-257
2.51857e-257
1.5901e-257
9.95198e-258
6.1692e-258
3.78458e-258
2.29571e-258
1.37584e-258
8.13975e-259
4.74979e-259
2.73133e-259
1.54636e-259
8.61108e-260
4.71158e-260
2.53017e-260
1.33195e-260
6.86459e-261
3.45869e-261
1.701e-261
8.15181e-262
3.79948e-262
1.71834e-262
7.51269e-263
3.14068e-263
1.29782e-263
5.30081e-264
2.13996e-264
8.53903e-265
3.36801e-265
1.3132e-265
5.06198e-266
1.92933e-266
7.27226e-267
2.71186e-267
1.00152e-267
3.6786e-268
1.36955e-268
5.59698e-269
3.16827e-269
3.1001e-269
4.37346e-269
6.90936e-269
1.11255e-268
1.7856e-268
2.84473e-268
4.49801e-268
7.06402e-268
1.10299e-267
1.71421e-267
2.65501e-267
4.10347e-267
6.3378e-267
9.79666e-267
1.51787e-266
2.3607e-266
3.68997e-266
5.80015e-266
9.16219e-266
1.44983e-265
2.27975e-265
3.50066e-265
5.07068e-265
6.49078e-265
1.52267e-253
1.22031e-253
8.63835e-254
5.71665e-254
3.65682e-254
2.30481e-254
1.44645e-254
9.08773e-255
5.72985e-255
3.6281e-255
2.30649e-255
1.47102e-255
9.40187e-256
6.01467e-256
3.84649e-256
2.45597e-256
1.56369e-256
9.91586e-257
6.25546e-257
3.92157e-257
2.44043e-257
1.50603e-257
9.20708e-258
5.5706e-258
3.33231e-258
1.96891e-258
1.14792e-258
6.59711e-259
3.73335e-259
2.0781e-259
1.13645e-259
6.09853e-260
3.2071e-260
1.65044e-260
8.29894e-261
4.07058e-261
1.94405e-261
9.02172e-262
4.05817e-262
1.76249e-262
7.30552e-263
2.99286e-263
1.21178e-263
4.84925e-264
1.91804e-264
7.49914e-265
2.89856e-265
1.10774e-265
4.18658e-266
1.56516e-266
5.79083e-267
2.12302e-267
7.75118e-268
2.8817e-268
1.19607e-268
7.12654e-269
7.37959e-269
1.06802e-268
1.70304e-268
2.75782e-268
4.45207e-268
7.14236e-268
1.13891e-267
1.80677e-267
2.85484e-267
4.49822e-267
7.0766e-267
1.11298e-266
1.75218e-266
2.76457e-266
4.37623e-266
6.95558e-266
1.11026e-265
1.77845e-265
2.85163e-265
4.55177e-265
7.15597e-265
1.08683e-264
1.54209e-264
1.93156e-264
4.2379e-253
3.45521e-253
2.49213e-253
1.67063e-253
1.07367e-253
6.74536e-254
4.19259e-254
2.59642e-254
1.60842e-254
9.98653e-255
6.21941e-255
3.88504e-255
2.433e-255
1.52633e-255
9.58309e-256
6.01524e-256
3.7706e-256
2.3577e-256
1.4689e-256
9.10818e-257
5.61455e-257
3.43681e-257
2.08676e-257
1.25541e-257
7.47506e-258
4.40022e-258
2.55785e-258
1.46662e-258
8.28491e-259
4.60526e-259
2.51571e-259
1.34873e-259
7.08643e-260
3.6434e-260
1.83001e-260
8.964e-261
4.27378e-261
1.97904e-261
8.87807e-262
3.84275e-262
1.58595e-262
6.46719e-263
2.60582e-263
1.03757e-263
4.08304e-264
1.58821e-264
6.1076e-265
2.32256e-265
8.73596e-266
3.25128e-266
1.19796e-266
4.37635e-267
1.59394e-267
5.93175e-268
2.49342e-268
1.53895e-268
1.65272e-268
2.43578e-268
3.92268e-268
6.4076e-268
1.04428e-267
1.69361e-267
2.73419e-267
4.39838e-267
7.05813e-267
1.13113e-266
1.81237e-266
2.90639e-266
4.66921e-266
7.52065e-266
1.21506e-265
1.96906e-265
3.19817e-265
5.19558e-265
8.40815e-265
1.3458e-264
2.10484e-264
3.15422e-264
4.3904e-264
5.40346e-264
1.12352e-252
9.28822e-253
6.81078e-253
4.62614e-253
2.99435e-253
1.88223e-253
1.16353e-253
7.13087e-254
4.35493e-254
2.65838e-254
1.62472e-254
9.94922e-255
6.10536e-255
3.75339e-255
2.31039e-255
1.42289e-255
8.76011e-256
5.38614e-256
3.30395e-256
2.01984e-256
1.22928e-256
7.43955e-257
4.47209e-257
2.66708e-257
1.5762e-257
9.21971e-258
5.33113e-258
3.0435e-258
1.71324e-258
9.49681e-259
5.17663e-259
2.77074e-259
1.454e-259
7.46873e-260
3.74883e-260
1.8353e-260
8.74605e-261
4.04806e-261
1.81499e-261
7.85089e-262
3.23794e-262
1.31896e-262
5.30732e-263
2.10996e-263
8.28933e-264
3.21892e-264
1.23584e-264
4.69254e-265
1.76279e-265
6.55441e-266
2.41377e-266
8.81833e-267
3.21484e-267
1.2e-267
5.0906e-268
3.20683e-268
3.51883e-268
5.25983e-268
8.56688e-268
1.41566e-267
2.33673e-267
3.84338e-267
6.30132e-267
1.03077e-266
1.68399e-266
2.75031e-266
4.49438e-266
7.35403e-266
1.20555e-265
1.98048e-265
3.25992e-265
5.37222e-265
8.84832e-265
1.45204e-264
2.36185e-264
3.77672e-264
5.86235e-264
8.66675e-264
1.18616e-263
1.43928e-263
2.8637e-252
2.39423e-252
1.78068e-252
1.22453e-252
7.98971e-253
5.03584e-253
3.10488e-253
1.88893e-253
1.14061e-253
6.86255e-254
4.12413e-254
2.47915e-254
1.49183e-254
8.98849e-255
5.42185e-255
3.27294e-255
1.97609e-255
1.19245e-255
7.18597e-256
4.32052e-256
2.5892e-256
1.54496e-256
9.16879e-257
5.40567e-257
3.16236e-257
1.83341e-257
1.05205e-257
5.96726e-258
3.341e-258
1.84385e-258
1.00157e-258
5.34658e-259
2.80034e-259
1.43664e-259
7.20614e-260
3.52732e-260
1.68143e-260
7.78808e-261
3.49581e-261
1.51451e-261
6.26075e-262
2.55523e-262
1.02989e-262
4.10045e-263
1.61315e-263
6.27286e-264
2.41187e-264
9.17299e-265
3.45249e-265
1.28662e-265
4.75119e-266
1.74151e-266
6.37418e-267
2.39071e-267
1.02033e-267
6.48165e-268
7.1892e-268
1.08745e-267
1.79411e-267
3.00677e-267
5.03979e-267
8.42767e-267
1.40637e-266
2.34382e-266
3.90421e-266
6.50483e-266
1.08463e-265
1.81066e-265
3.02655e-265
5.06411e-265
8.47559e-265
1.41678e-264
2.35944e-264
3.89926e-264
6.35678e-264
1.01338e-263
1.5599e-263
2.27707e-263
3.07173e-263
3.68456e-263
7.06731e-252
5.9632e-252
4.48871e-252
3.12128e-252
2.05288e-252
1.2988e-252
8.0018e-253
4.84335e-253
2.89849e-253
1.72268e-253
1.01994e-253
6.02802e-254
3.56089e-254
2.10398e-254
1.24382e-254
7.35701e-255
4.35277e-255
2.57489e-255
1.52204e-255
8.98368e-256
5.29039e-256
3.10547e-256
1.81524e-256
1.05546e-256
6.09743e-257
3.49559e-257
1.98613e-257
1.11691e-257
6.20792e-258
3.40525e-258
1.84061e-258
9.78781e-259
5.11203e-259
2.6177e-259
1.31177e-259
6.42027e-260
3.06265e-260
1.42072e-260
6.39205e-261
2.77827e-261
1.15386e-261
4.72987e-262
1.91428e-262
7.6521e-263
3.02233e-263
1.17996e-263
4.55562e-264
1.74017e-264
6.5801e-265
2.46458e-265
9.15159e-266
3.37491e-266
1.24341e-266
4.69366e-267
2.0111e-267
1.27702e-267
1.42083e-267
2.17203e-267
3.63522e-267
6.19136e-267
1.05594e-266
1.79852e-266
3.05948e-266
5.20095e-266
8.84017e-266
1.50304e-265
2.55694e-265
4.35219e-265
7.40954e-265
1.2608e-264
2.14142e-264
3.62286e-264
6.0861e-264
1.01065e-263
1.64835e-263
2.61705e-263
3.99519e-263
5.76599e-263
7.68347e-263
9.13031e-263
1.69818e-251
1.44369e-251
1.09778e-251
7.70847e-252
5.10814e-252
3.2453e-252
2.00012e-252
1.20641e-252
7.16853e-253
4.21663e-253
2.46398e-253
1.43396e-253
8.32592e-254
4.82863e-254
2.7991e-254
1.62246e-254
9.4043e-255
5.45018e-255
3.1571e-255
1.82705e-255
1.05567e-255
6.08556e-256
3.49699e-256
2.00122e-256
1.13931e-256
6.4452e-257
3.61857e-257
2.01358e-257
1.10897e-257
6.03595e-258
3.24163e-258
1.715e-258
8.92264e-259
4.55691e-259
2.28019e-259
1.11565e-259
5.32635e-260
2.47565e-260
1.11734e-260
4.87811e-261
2.039e-261
8.41024e-262
3.42456e-262
1.3772e-262
5.47251e-263
2.14972e-263
8.35233e-264
3.21151e-264
1.22281e-264
4.61377e-265
1.72669e-265
6.42121e-266
2.38649e-266
9.08049e-267
3.90253e-267
2.46321e-267
2.735e-267
4.22253e-267
7.17801e-267
1.24439e-266
2.16273e-266
3.75669e-266
6.52069e-266
1.13136e-265
1.96272e-265
3.40501e-265
5.90667e-265
1.02416e-264
1.7737e-264
3.06451e-264
5.27268e-264
9.01118e-264
1.52424e-263
2.53933e-263
4.13901e-263
6.54232e-263
9.91035e-263
1.41609e-262
1.86763e-262
2.20233e-262
3.99084e-251
3.41379e-251
2.61803e-251
1.85395e-251
1.23694e-251
7.89138e-252
4.86836e-252
2.92945e-252
1.7308e-252
1.00918e-252
5.82949e-253
3.34567e-253
1.91186e-253
1.08947e-253
6.19771e-254
3.52211e-254
2.00035e-254
1.13555e-254
6.44297e-255
3.65293e-255
2.06874e-255
1.16963e-255
6.59756e-256
3.7099e-256
2.07772e-256
1.15773e-256
6.41095e-257
3.5236e-257
1.91957e-257
1.035e-257
5.51463e-258
2.89877e-258
1.50064e-258
7.63681e-259
3.81317e-259
1.86436e-259
8.90684e-260
4.14856e-260
1.8791e-260
8.24678e-261
3.47338e-261
1.44352e-261
5.92234e-262
2.39981e-262
9.60947e-263
3.8045e-263
1.49014e-263
5.7778e-264
2.21923e-264
8.45053e-265
3.19332e-265
1.19968e-265
4.50554e-266
1.73043e-266
7.46045e-267
4.66831e-267
5.15749e-267
8.03972e-267
1.38958e-266
2.45503e-266
4.35254e-266
7.71637e-266
1.36731e-265
2.42173e-265
4.28741e-265
7.58576e-265
1.34078e-264
2.3657e-264
4.16227e-264
7.29099e-264
1.26878e-263
2.18705e-263
3.7197e-263
6.21024e-263
1.01101e-262
1.59106e-262
2.39331e-262
3.39041e-262
4.43295e-262
5.19451e-262
9.20655e-251
7.9155e-251
6.11378e-251
4.36091e-251
2.92718e-251
1.87482e-251
1.15811e-251
6.95734e-252
4.09171e-252
2.36801e-252
1.35407e-252
7.67456e-253
4.32189e-253
2.42274e-253
1.3538e-253
7.54841e-254
4.20251e-254
2.33725e-254
1.29879e-254
7.2114e-255
4.00028e-255
2.21625e-255
1.22576e-255
6.76387e-256
3.72104e-256
2.03907e-256
1.11187e-256
6.02605e-257
3.24198e-257
1.72893e-257
9.1258e-258
4.75978e-258
2.44889e-258
1.24059e-258
6.17628e-259
3.01576e-259
1.44122e-259
6.72613e-260
3.05796e-260
1.34962e-260
5.73178e-261
2.40223e-261
9.9402e-262
4.06306e-262
1.64146e-262
6.55822e-263
2.59294e-263
1.01519e-263
3.93894e-264
1.51582e-264
5.79168e-265
2.20109e-265
8.36427e-266
3.24658e-266
1.40548e-266
8.71751e-267
9.57404e-267
1.50726e-266
2.65105e-266
4.7772e-266
8.64525e-266
1.56487e-265
2.83103e-265
5.11772e-265
9.24186e-265
1.66646e-264
2.99828e-264
5.3771e-264
9.59861e-264
1.7023e-263
2.992e-263
5.1951e-263
8.87475e-263
1.48381e-262
2.41204e-262
3.7803e-262
5.65128e-262
7.94684e-262
1.03154e-261
1.20249e-261
2.09126e-250
1.80556e-250
1.4029e-250
1.00685e-250
6.79393e-251
4.36703e-251
2.70129e-251
1.62097e-251
9.49737e-252
5.46146e-252
3.0953e-252
1.73475e-252
9.63968e-253
5.32224e-253
2.92445e-253
1.60127e-253
8.74518e-254
4.76716e-254
2.59503e-254
1.41104e-254
7.6646e-255
4.1588e-255
2.2536e-255
1.21913e-255
6.58053e-256
3.54166e-256
1.89898e-256
1.01337e-256
5.37584e-257
2.83135e-257
1.47836e-257
7.64058e-258
3.90206e-258
1.96563e-258
9.74827e-259
4.75013e-259
2.26954e-259
1.06092e-259
4.84063e-260
2.14858e-260
9.20369e-261
3.89173e-261
1.62515e-261
6.70556e-262
2.73538e-262
1.10385e-262
4.40958e-263
1.745e-263
6.84617e-264
2.66522e-264
1.03066e-264
3.96624e-265
1.52648e-265
5.99418e-266
2.60949e-266
1.60735e-266
1.75673e-266
2.79529e-266
5.00675e-266
9.20717e-266
1.70128e-265
3.1443e-265
5.80638e-265
1.0708e-264
1.97108e-264
3.61891e-264
6.62075e-264
1.2054e-263
2.18035e-263
3.9099e-263
6.9324e-263
1.2112e-262
2.07652e-262
3.47515e-262
5.64041e-262
8.80708e-262
1.30952e-261
1.82993e-261
2.36103e-261
2.74055e-261
4.68927e-250
4.06266e-250
3.17234e-250
2.28863e-250
1.5513e-250
1.00032e-250
6.19598e-251
3.71507e-251
2.16991e-251
1.24099e-251
6.97865e-252
3.87213e-252
2.1258e-252
1.1574e-252
6.26093e-253
3.37e-253
1.80706e-253
9.66198e-254
5.15484e-254
2.74562e-254
1.46045e-254
7.75942e-255
4.11783e-255
2.18243e-255
1.15481e-255
6.09786e-256
3.21114e-256
1.68502e-256
8.80205e-257
4.57188e-257
2.35811e-257
1.20601e-257
6.10586e-258
3.05491e-258
1.50764e-258
7.32482e-259
3.49632e-259
1.63614e-259
7.4889e-260
3.34224e-260
1.4439e-260
6.1604e-261
2.59675e-261
1.08196e-261
4.45862e-262
1.81827e-262
7.34319e-263
2.93899e-263
1.16667e-263
4.5976e-264
1.8006e-264
7.02068e-265
2.73833e-265
1.08875e-265
4.77475e-266
2.93085e-266
3.19711e-266
5.14889e-266
9.39763e-266
1.76405e-265
3.32809e-265
6.27876e-265
1.18292e-264
2.22395e-264
4.16914e-264
7.78588e-264
1.44673e-263
2.67073e-263
4.88902e-263
8.85433e-263
1.58198e-262
2.77873e-262
4.77806e-262
8.00153e-262
1.29678e-261
2.01815e-261
2.98688e-261
4.15188e-261
5.32994e-261
6.16489e-261
1.0402e-249
9.03778e-250
7.08634e-250
5.13468e-250
3.49389e-250
2.2592e-250
1.40109e-250
8.39592e-251
4.89117e-251
2.78413e-251
1.55497e-251
8.55118e-252
4.64372e-252
2.49627e-252
1.33099e-252
7.05073e-253
3.71591e-253
1.95053e-253
1.02068e-253
5.32826e-254
2.77636e-254
1.44453e-254
7.50661e-255
3.89636e-255
2.01995e-255
1.04565e-255
5.40271e-256
2.7846e-256
1.43054e-256
7.31808e-257
3.72352e-257
1.88185e-257
9.43275e-258
4.68154e-258
2.29647e-258
1.1113e-258
5.29461e-259
2.47841e-259
1.13729e-259
5.10082e-260
2.22149e-260
9.56092e-261
4.06773e-261
1.71156e-261
7.12596e-262
2.93742e-262
1.19964e-262
4.85754e-263
1.95172e-263
7.78838e-264
3.09019e-264
1.22119e-264
4.82878e-265
1.94516e-265
8.61016e-266
5.29121e-266
5.78788e-266
9.45342e-266
1.75919e-265
3.37075e-265
6.49093e-265
1.24934e-264
2.39964e-264
4.59501e-264
8.76362e-264
1.66279e-263
3.13433e-263
5.8597e-263
1.0843e-262
1.98108e-262
3.56336e-262
6.28776e-262
1.08387e-261
1.81592e-261
2.93899e-261
4.56078e-261
6.72343e-261
9.30438e-261
1.18945e-260
1.37178e-260
2.28678e-249
1.99156e-249
1.56689e-249
1.1395e-249
7.77905e-250
5.04202e-250
3.13037e-250
1.87502e-250
1.08993e-250
6.17887e-251
3.43038e-251
1.87161e-251
1.0065e-251
5.34844e-252
2.81432e-252
1.46903e-252
7.61825e-253
3.93008e-253
2.01899e-253
1.03381e-253
5.28005e-254
2.6914e-254
1.36979e-254
6.96296e-255
3.53562e-255
1.79336e-255
9.08497e-256
4.59495e-256
2.319e-256
1.16696e-256
5.84968e-257
2.91758e-257
1.4459e-257
7.10902e-258
3.46181e-258
1.66659e-258
7.91683e-259
3.70336e-259
1.70224e-259
7.66659e-260
3.36352e-260
1.45948e-260
6.26495e-261
2.66137e-261
1.11934e-261
4.66361e-262
1.92605e-262
7.89057e-263
3.20916e-263
1.29691e-263
5.21354e-264
2.08836e-264
8.37254e-265
3.41859e-265
1.53037e-265
9.46782e-266
1.04493e-265
1.73537e-265
3.29413e-265
6.44115e-265
1.26531e-264
2.48271e-264
4.85697e-264
9.46274e-264
1.83394e-263
3.53107e-263
6.74387e-263
1.27529e-262
2.38272e-262
4.3874e-262
7.93807e-262
1.40626e-261
2.42913e-261
4.07116e-261
6.58108e-261
1.01875e-260
1.49683e-260
2.06375e-260
2.6291e-260
3.02486e-260
4.98986e-249
4.35408e-249
3.43535e-249
2.50594e-249
1.71542e-249
1.1141e-249
6.92361e-250
4.14562e-250
2.4053e-250
1.35881e-250
7.50455e-251
4.06606e-251
2.1677e-251
1.14001e-251
5.92726e-252
3.05247e-252
1.55958e-252
7.91647e-253
3.99709e-253
2.00952e-253
1.00686e-253
5.03144e-254
2.50921e-254
1.24945e-254
6.21436e-255
3.08792e-255
1.53306e-255
7.60373e-256
3.76656e-256
1.86249e-256
9.18673e-257
4.51582e-257
2.2096e-257
1.07473e-257
5.18817e-258
2.48152e-258
1.17384e-258
5.48088e-259
2.52073e-259
1.1389e-259
5.02839e-260
2.19801e-260
9.5133e-261
4.07796e-261
1.73192e-261
7.29111e-262
3.04436e-262
1.26163e-262
5.19314e-263
2.12508e-263
8.65422e-264
3.51331e-264
1.42802e-264
5.91194e-265
2.68199e-265
1.68094e-265
1.88559e-265
3.1936e-265
6.18595e-265
1.23374e-264
2.47033e-264
4.93648e-264
9.8254e-264
1.94535e-263
3.82651e-263
7.46702e-263
1.44316e-262
2.75724e-262
5.19602e-262
9.63351e-262
1.75193e-261
3.1142e-261
5.38889e-261
9.03407e-261
1.45885e-260
2.2536e-260
3.30191e-260
4.53844e-260
5.76514e-260
6.61991e-260
1.08208e-248
9.45715e-249
7.47909e-249
5.46944e-249
3.75262e-249
2.44132e-249
1.51841e-249
9.08902e-250
5.2651e-250
2.9654e-250
1.63034e-250
8.7796e-251
4.64475e-251
2.42023e-251
1.24488e-251
6.33309e-252
3.19201e-252
1.59632e-252
7.93134e-253
3.91964e-253
1.92867e-253
9.45731e-254
4.62501e-254
2.25727e-254
1.10006e-254
5.35556e-255
2.60539e-255
1.26672e-255
6.15489e-256
2.98802e-256
1.44869e-256
7.00964e-257
3.38177e-257
1.62487e-257
7.76458e-258
3.68436e-258
1.73302e-258
8.06572e-259
3.70683e-259
1.678e-259
7.44637e-260
3.27548e-260
1.42812e-260
6.17259e-261
2.64547e-261
1.12471e-261
4.74569e-262
1.98862e-262
8.28153e-263
3.43035e-263
1.41476e-263
5.81908e-264
2.3974e-264
1.00653e-264
4.63723e-265
2.96494e-265
3.4081e-265
5.90518e-265
1.16738e-264
2.37308e-264
4.83841e-264
9.83549e-264
1.98925e-263
3.9974e-263
7.97008e-263
1.57428e-262
3.07532e-262
5.92967e-262
1.12597e-261
2.10017e-261
3.83636e-261
6.83952e-261
1.18532e-260
1.98754e-260
3.20671e-260
4.94499e-260
7.22839e-260
9.90991e-260
1.25587e-259
1.43974e-259
2.33458e-248
2.04303e-248
1.61881e-248
1.1863e-248
8.15475e-249
5.31269e-249
3.30655e-249
1.97876e-249
1.1447e-249
6.4304e-250
3.52146e-250
1.88629e-250
9.91206e-251
5.12277e-251
2.6098e-251
1.3132e-251
6.53789e-252
3.22552e-252
1.57913e-252
7.68114e-253
3.71626e-253
1.79017e-253
8.5936e-254
4.11434e-254
1.96597e-254
9.38148e-255
4.473e-255
2.13167e-255
1.01561e-255
4.83768e-256
2.30343e-256
1.09589e-256
5.20631e-257
2.46758e-257
1.16544e-257
5.47765e-258
2.55799e-258
1.18483e-258
5.43297e-259
2.46045e-259
1.09578e-259
4.84405e-260
2.12513e-260
9.2522e-261
3.99807e-261
1.71524e-261
7.30887e-262
3.09501e-262
1.3033e-262
5.46177e-263
2.28012e-263
9.49766e-264
3.96474e-264
1.68832e-264
7.91777e-265
5.20402e-265
6.18243e-265
1.09916e-264
2.21747e-264
4.59026e-264
9.51867e-264
1.96584e-263
4.03488e-263
8.21841e-263
1.65878e-262
3.31243e-262
6.53264e-262
1.26984e-261
2.42742e-261
4.55148e-261
8.34628e-261
1.49176e-260
2.58864e-260
4.34148e-260
6.99941e-260
1.07779e-259
1.57242e-259
2.15119e-259
2.72087e-259
3.11511e-259
5.01558e-248
4.39391e-248
3.48704e-248
2.55977e-248
1.76236e-248
1.14949e-248
7.15833e-249
4.28283e-249
2.47469e-249
1.38707e-249
7.57026e-250
4.03635e-250
2.10856e-250
1.08195e-250
5.46544e-251
2.72339e-251
1.34101e-251
6.53556e-252
3.15707e-252
1.51354e-252
7.20991e-253
3.41629e-253
1.61175e-253
7.57792e-254
3.55366e-254
1.66341e-254
7.77704e-255
3.63382e-255
1.69762e-255
7.93176e-256
3.70681e-256
1.73254e-256
8.09599e-257
3.78003e-257
1.76189e-257
8.18902e-258
3.79018e-258
1.74415e-258
7.96595e-259
3.60295e-259
1.60757e-259
7.13068e-260
3.1433e-260
1.37678e-260
5.99186e-261
2.59149e-261
1.1142e-261
4.7642e-262
2.02712e-262
8.58898e-263
3.6272e-263
1.52918e-263
6.46497e-264
2.79266e-264
1.33672e-264
9.10751e-265
1.12781e-264
2.06253e-264
4.24479e-264
8.93779e-264
1.88257e-263
3.94468e-263
8.2053e-263
1.69177e-262
3.45225e-262
6.96102e-262
1.38444e-261
2.71036e-261
5.21137e-261
9.81608e-261
1.80603e-260
3.235e-260
5.61993e-260
9.42701e-260
1.51892e-259
2.33605e-259
3.40273e-259
4.64709e-259
5.86838e-259
6.7114e-259
1.07381e-247
9.41533e-248
7.4817e-248
5.49989e-248
3.79145e-248
2.47534e-248
1.54219e-248
9.22505e-249
5.32506e-249
2.97901e-249
1.62113e-249
8.60923e-250
4.47447e-250
2.28161e-250
1.14401e-250
5.65167e-251
2.75585e-251
1.32852e-251
6.34084e-252
3.00036e-252
1.40921e-252
6.57725e-253
3.05376e-253
1.4118e-253
6.50516e-254
2.98994e-254
1.37193e-254
6.28896e-255
2.8819e-255
1.32086e-255
6.0572e-256
2.77973e-256
1.27653e-256
5.86457e-257
2.69383e-257
1.23615e-257
5.66055e-258
2.58315e-258
1.17287e-258
5.28791e-259
2.3591e-259
1.04809e-259
4.63468e-260
2.03924e-260
8.92651e-261
3.88745e-261
1.68459e-261
7.2663e-262
3.12122e-262
1.33596e-262
5.70285e-263
2.43164e-263
1.0406e-263
4.56063e-264
2.23513e-264
1.59315e-264
2.07276e-264
3.90593e-264
8.19468e-264
1.75288e-263
3.74502e-263
7.95058e-263
1.67374e-262
3.48864e-262
7.18853e-262
1.46193e-261
2.92909e-261
5.77012e-261
1.11508e-260
2.10862e-260
3.89071e-260
6.98211e-260
1.21411e-259
2.03692e-259
3.28036e-259
5.0401e-259
7.33188e-259
9.99888e-259
1.26102e-258
1.44091e-258
2.29246e-247
2.01148e-247
1.60006e-247
1.17757e-247
8.12633e-248
5.30963e-248
3.30923e-248
1.97914e-248
1.14146e-248
6.3753e-249
3.46071e-249
1.83158e-249
9.47741e-250
4.80654e-250
2.39449e-250
1.17405e-250
5.67592e-251
2.70995e-251
1.27968e-251
5.9848e-252
2.77552e-252
1.27788e-252
5.84735e-253
2.66193e-253
1.20678e-253
5.45329e-254
2.4585e-254
1.10669e-254
4.97814e-255
2.2392e-255
1.00776e-255
4.53998e-256
2.04783e-256
9.24898e-257
4.18172e-257
1.89173e-257
8.55581e-258
3.86452e-258
1.7409e-258
7.80757e-259
3.47529e-259
1.5433e-259
6.8331e-260
3.01502e-260
1.32536e-260
5.80352e-261
2.5315e-261
1.10021e-261
4.76585e-262
2.05868e-262
8.8748e-263
3.82407e-263
1.65545e-263
7.36342e-264
3.70939e-264
2.79347e-264
3.84434e-264
7.47031e-264
1.59606e-263
3.46354e-263
7.49531e-263
1.60996e-262
3.42556e-262
7.20893e-262
1.49819e-261
3.06977e-261
6.19017e-261
1.226e-260
2.37959e-260
4.51505e-260
8.35133e-260
1.50108e-259
2.61236e-259
4.38343e-259
7.05652e-259
1.08332e-258
1.57424e-258
2.14439e-258
2.70156e-258
3.08473e-258
4.88281e-247
4.2868e-247
3.41289e-247
2.51407e-247
1.73642e-247
1.13527e-247
7.07767e-248
4.23221e-248
2.43912e-248
1.36041e-248
7.36911e-249
3.88873e-249
2.00463e-249
1.01193e-249
5.01304e-250
2.44197e-250
1.17176e-250
5.5475e-251
2.59514e-251
1.20121e-251
5.50834e-252
2.50541e-252
1.13155e-252
5.07996e-253
2.26924e-253
1.00961e-253
4.47809e-254
1.98193e-254
8.76038e-255
3.87038e-255
1.71045e-255
7.5662e-256
3.35181e-256
1.48752e-256
6.61411e-257
2.94608e-257
1.31397e-257
5.86372e-258
2.61546e-258
1.16427e-258
5.15869e-259
2.28474e-259
1.01072e-259
4.46342e-260
1.96677e-260
8.64492e-261
3.79004e-261
1.65738e-261
7.23084e-262
3.14856e-262
1.36927e-262
5.95664e-263
2.6068e-263
1.17737e-263
6.12609e-264
4.92527e-264
7.20552e-264
1.44342e-263
3.13643e-263
6.895e-263
1.50925e-262
3.27551e-262
7.03503e-262
1.49299e-261
3.12601e-261
6.44688e-261
1.30724e-260
2.60108e-260
5.06744e-260
9.64274e-260
1.7873e-259
3.21688e-259
5.60234e-259
9.40182e-259
1.51305e-258
2.32133e-258
3.37033e-258
4.58665e-258
5.77347e-258
6.58852e-258
1.03806e-246
9.11772e-247
7.26395e-247
5.35493e-247
3.7011e-247
2.42103e-247
1.5097e-247
9.02611e-248
5.19873e-248
2.89618e-248
1.56599e-248
8.24338e-249
4.23582e-249
2.12972e-249
1.05001e-249
5.08612e-250
2.42479e-250
1.1396e-250
5.28763e-251
2.42544e-251
1.10127e-251
4.95544e-252
2.21229e-252
9.8093e-253
4.32425e-253
1.89711e-253
8.29093e-254
3.6129e-254
1.57128e-254
6.82642e-255
2.96517e-255
1.28878e-255
5.60905e-256
2.44592e-256
1.06909e-256
4.68476e-257
2.05791e-257
9.05882e-258
3.99312e-258
1.76054e-258
7.7466e-259
3.41361e-259
1.50533e-259
6.63863e-260
2.92622e-260
1.28865e-260
5.66827e-261
2.49004e-261
1.09254e-261
4.78903e-262
2.09843e-262
9.20619e-263
4.06998e-263
1.86806e-263
1.01001e-263
8.76048e-264
1.36622e-263
2.81764e-263
6.21719e-263
1.3826e-262
3.05692e-262
6.69485e-262
1.44969e-261
3.09912e-261
6.53083e-261
1.35444e-260
2.75952e-260
5.51249e-260
1.07737e-259
2.05513e-259
3.81596e-259
6.87605e-259
1.19821e-258
2.0111e-258
3.23569e-258
4.9616e-258
7.1987e-258
9.78922e-258
1.23137e-257
1.40455e-257
2.2035e-246
1.93615e-246
1.54335e-246
1.13844e-246
7.87277e-247
5.15198e-247
3.21323e-247
1.92085e-247
1.10576e-247
6.15404e-248
3.32252e-248
1.74533e-248
8.94393e-249
4.48171e-249
2.20059e-249
1.06083e-249
5.02949e-250
2.34889e-250
1.08218e-250
4.92519e-251
2.21709e-251
9.8831e-252
4.36757e-252
1.91551e-252
8.34589e-253
3.61607e-253
1.55955e-253
6.70162e-254
2.87204e-254
1.2287e-254
5.2523e-255
2.24541e-255
9.60865e-256
4.11894e-256
1.76992e-256
7.6274e-257
3.29739e-257
1.43e-257
6.21916e-258
2.71036e-258
1.18161e-258
5.16817e-259
2.26633e-259
9.95732e-260
4.38049e-260
1.92857e-260
8.49392e-261
3.74143e-261
1.64811e-261
7.2612e-262
3.20117e-262
1.41459e-262
6.31285e-263
2.94817e-263
1.66859e-263
1.57681e-263
2.62199e-263
5.55513e-263
1.24264e-262
2.79149e-262
6.2263e-262
1.37436e-261
2.99711e-261
6.44758e-261
1.36625e-260
2.84705e-260
5.82416e-260
1.16736e-259
2.28765e-259
4.37283e-259
8.13157e-259
1.46666e-258
2.55708e-258
4.29237e-258
6.90476e-258
1.05833e-257
1.53465e-257
2.08563e-257
2.62203e-257
2.98969e-257
4.67168e-246
4.1061e-246
3.27451e-246
2.41658e-246
1.67191e-246
1.09446e-246
6.82697e-247
4.08063e-247
2.34802e-247
1.30569e-247
7.04043e-248
3.69186e-248
1.88758e-248
9.43147e-249
4.61504e-249
2.2157e-249
1.04553e-249
4.85661e-250
2.22401e-250
1.00538e-250
4.49224e-251
1.9863e-251
8.7008e-252
3.77978e-252
1.63009e-252
6.98588e-253
2.97794e-253
1.2639e-253
5.34599e-254
2.25566e-254
9.50311e-255
4.0015e-255
1.68559e-255
7.10959e-256
3.00514e-256
1.27387e-256
5.41837e-257
2.31337e-257
9.91473e-258
4.26411e-258
1.83807e-258
7.96142e-259
3.46332e-259
1.5122e-259
6.62333e-260
2.90833e-260
1.27968e-260
5.64014e-261
2.4895e-261
1.10043e-261
4.87314e-262
2.16601e-262
9.74998e-263
4.64123e-263
2.77403e-263
2.87957e-263
5.09369e-263
1.10558e-262
2.50289e-262
5.67208e-262
1.27474e-261
2.83288e-261
6.21528e-261
1.34428e-260
2.86198e-260
5.98821e-260
1.22921e-259
2.47075e-259
4.85287e-259
9.29232e-259
1.73013e-258
3.1231e-258
5.44739e-258
9.14512e-258
1.47088e-257
2.25375e-257
3.26662e-257
4.43726e-257
5.576e-257
6.35598e-257
9.89482e-246
8.69897e-246
6.93965e-246
5.12342e-246
3.54588e-246
2.3218e-246
1.44843e-246
8.65666e-247
4.97924e-247
2.76696e-247
1.4904e-247
7.80392e-248
3.98237e-248
1.98508e-248
9.68527e-249
4.63397e-249
2.17792e-249
1.00706e-249
4.58796e-250
2.06213e-250
9.15561e-251
4.02015e-251
1.74767e-251
7.5301e-252
3.21885e-252
1.36642e-252
5.76594e-253
2.42082e-253
1.01222e-253
4.21903e-254
1.75466e-254
7.28841e-255
3.02659e-255
1.25769e-255
5.23483e-256
2.18433e-256
9.14455e-257
3.8433e-257