/*--------------------------------*- C++ -*----------------------------------*\
  =========                 |
  \\      /  F ield         | OpenFOAM: The Open Source CFD Toolbox
   \\    /   O peration     | Website:  https://openfoam.org
    \\  /    A nd           | Version:  11
     \\/     M anipulation  |
\*---------------------------------------------------------------------------*/
FoamFile
{
    format      ascii;
    class       volScalarField;
    location    "623";
    object      p;
}
// * * * * * * * * * * * * * * * * * * * * * * * * * * * * * * * * * * * * * //

dimensions      [0 2 -2 0 0 0 0];

internalField   nonuniform List<scalar> 
427520
(
0.547105
0.542818
0.539832
0.538126
0.537001
0.536176
0.535557
0.535089
0.534731
0.534451
0.534228
0.534047
0.533899
0.533775
0.53367
0.53358
0.533502
0.533434
0.533374
0.533321
0.533274
0.533232
0.533194
0.53316
0.533129
0.533101
0.533077
0.533054
0.533034
0.533017
0.533001
0.532987
0.532975
0.532964
0.532955
0.532948
0.532942
0.532938
0.532935
0.532934
0.532934
0.532935
0.532938
0.532942
0.532948
0.532955
0.532964
0.532975
0.532987
0.533001
0.533017
0.533034
0.533054
0.533077
0.533101
0.533129
0.53316
0.533194
0.533232
0.533274
0.533321
0.533374
0.533434
0.533502
0.53358
0.53367
0.533775
0.533899
0.534047
0.534228
0.534451
0.534731
0.535089
0.535557
0.536176
0.537001
0.538126
0.539832
0.542818
0.547105
0.537746
0.537457
0.536998
0.536497
0.536025
0.535603
0.535237
0.534925
0.534661
0.534437
0.534248
0.534086
0.533948
0.533829
0.533725
0.533635
0.533556
0.533487
0.533425
0.53337
0.533321
0.533277
0.533237
0.533201
0.533169
0.533141
0.533115
0.533092
0.533071
0.533052
0.533036
0.533021
0.533008
0.532998
0.532988
0.532981
0.532975
0.53297
0.532967
0.532966
0.532966
0.532967
0.53297
0.532975
0.532981
0.532988
0.532998
0.533008
0.533021
0.533036
0.533052
0.533071
0.533092
0.533115
0.533141
0.533169
0.533201
0.533237
0.533277
0.533321
0.53337
0.533425
0.533487
0.533556
0.533635
0.533725
0.533829
0.533948
0.534086
0.534248
0.534437
0.534661
0.534925
0.535237
0.535603
0.536025
0.536497
0.536998
0.537457
0.537746
0.535331
0.535528
0.535615
0.535517
0.535332
0.53512
0.534907
0.534704
0.534516
0.534347
0.534195
0.534059
0.533939
0.533832
0.533738
0.533654
0.533579
0.533512
0.533452
0.533398
0.533349
0.533305
0.533266
0.533231
0.533198
0.53317
0.533143
0.53312
0.533099
0.53308
0.533063
0.533049
0.533036
0.533025
0.533016
0.533008
0.533002
0.532997
0.532994
0.532993
0.532993
0.532994
0.532997
0.533002
0.533008
0.533016
0.533025
0.533036
0.533049
0.533063
0.53308
0.533099
0.53312
0.533143
0.53317
0.533198
0.533231
0.533266
0.533305
0.533349
0.533398
0.533452
0.533512
0.533579
0.533654
0.533738
0.533832
0.533939
0.534059
0.534195
0.534347
0.534516
0.534704
0.534907
0.53512
0.535332
0.535517
0.535615
0.535528
0.535331
0.534398
0.534596
0.534741
0.534767
0.534719
0.534633
0.534526
0.53441
0.534293
0.534178
0.534069
0.533967
0.533872
0.533785
0.533706
0.533633
0.533567
0.533507
0.533452
0.533402
0.533357
0.533316
0.533279
0.533245
0.533214
0.533186
0.533161
0.533138
0.533117
0.533099
0.533083
0.533068
0.533055
0.533045
0.533035
0.533028
0.533022
0.533017
0.533014
0.533013
0.533013
0.533014
0.533017
0.533022
0.533028
0.533035
0.533045
0.533055
0.533068
0.533083
0.533099
0.533117
0.533138
0.533161
0.533186
0.533214
0.533245
0.533279
0.533316
0.533357
0.533402
0.533452
0.533507
0.533567
0.533633
0.533706
0.533785
0.533872
0.533967
0.534069
0.534178
0.534293
0.53441
0.534526
0.534633
0.534719
0.534767
0.534741
0.534596
0.534398
0.533907
0.534063
0.534194
0.534257
0.534267
0.534245
0.5342
0.53414
0.534072
0.533999
0.533924
0.533851
0.533781
0.533713
0.533649
0.53359
0.533534
0.533483
0.533435
0.533391
0.53335
0.533313
0.533279
0.533248
0.533219
0.533193
0.533169
0.533147
0.533128
0.53311
0.533095
0.533081
0.533069
0.533058
0.533049
0.533042
0.533036
0.533032
0.533029
0.533027
0.533027
0.533029
0.533032
0.533036
0.533042
0.533049
0.533058
0.533069
0.533081
0.533095
0.53311
0.533128
0.533147
0.533169
0.533193
0.533219
0.533248
0.533279
0.533313
0.53335
0.533391
0.533435
0.533483
0.533534
0.53359
0.533649
0.533713
0.533781
0.533851
0.533924
0.533999
0.534072
0.53414
0.5342
0.534245
0.534267
0.534257
0.534194
0.534063
0.533907
0.533622
0.533737
0.533844
0.533909
0.53394
0.533947
0.533935
0.533908
0.533871
0.533828
0.53378
0.53373
0.533679
0.533629
0.53358
0.533532
0.533487
0.533445
0.533405
0.533367
0.533332
0.533299
0.533269
0.53324
0.533215
0.533191
0.533169
0.533149
0.533131
0.533115
0.5331
0.533087
0.533076
0.533066
0.533057
0.53305
0.533045
0.533041
0.533038
0.533037
0.533037
0.533038
0.533041
0.533045
0.53305
0.533057
0.533066
0.533076
0.533087
0.5331
0.533115
0.533131
0.533149
0.533169
0.533191
0.533215
0.53324
0.533269
0.533299
0.533332
0.533367
0.533405
0.533445
0.533487
0.533532
0.53358
0.533629
0.533679
0.53373
0.53378
0.533828
0.533871
0.533908
0.533935
0.533947
0.53394
0.533909
0.533844
0.533737
0.533622
0.533438
0.533524
0.533607
0.533665
0.533701
0.53372
0.533724
0.533716
0.533699
0.533674
0.533645
0.533612
0.533577
0.533541
0.533504
0.533468
0.533432
0.533398
0.533365
0.533334
0.533304
0.533276
0.53325
0.533225
0.533202
0.533181
0.533162
0.533144
0.533127
0.533113
0.533099
0.533087
0.533077
0.533068
0.53306
0.533054
0.533048
0.533045
0.533042
0.533041
0.533041
0.533042
0.533045
0.533048
0.533054
0.53306
0.533068
0.533077
0.533087
0.533099
0.533113
0.533127
0.533144
0.533162
0.533181
0.533202
0.533225
0.53325
0.533276
0.533304
0.533334
0.533365
0.533398
0.533432
0.533468
0.533504
0.533541
0.533577
0.533612
0.533645
0.533674
0.533699
0.533716
0.533724
0.53372
0.533701
0.533665
0.533607
0.533524
0.533438
0.533309
0.533374
0.533439
0.533488
0.533522
0.533545
0.533556
0.533559
0.533553
0.533541
0.533524
0.533504
0.53348
0.533455
0.533428
0.533401
0.533374
0.533347
0.533321
0.533295
0.533271
0.533247
0.533225
0.533204
0.533184
0.533166
0.533149
0.533133
0.533118
0.533105
0.533093
0.533082
0.533073
0.533065
0.533058
0.533052
0.533047
0.533044
0.533041
0.53304
0.53304
0.533041
0.533044
0.533047
0.533052
0.533058
0.533065
0.533073
0.533082
0.533093
0.533105
0.533118
0.533133
0.533149
0.533166
0.533184
0.533204
0.533225
0.533247
0.533271
0.533295
0.533321
0.533347
0.533374
0.533401
0.533428
0.533455
0.53348
0.533504
0.533524
0.533541
0.533553
0.533559
0.533556
0.533545
0.533522
0.533488
0.533439
0.533374
0.533309
0.533213
0.533263
0.533315
0.533355
0.533386
0.533408
0.533423
0.53343
0.533431
0.533427
0.533418
0.533406
0.533391
0.533374
0.533355
0.533335
0.533315
0.533294
0.533273
0.533253
0.533233
0.533214
0.533195
0.533178
0.533161
0.533145
0.53313
0.533117
0.533104
0.533093
0.533082
0.533073
0.533064
0.533057
0.533051
0.533045
0.533041
0.533038
0.533036
0.533035
0.533035
0.533036
0.533038
0.533041
0.533045
0.533051
0.533057
0.533064
0.533073
0.533082
0.533093
0.533104
0.533117
0.53313
0.533145
0.533161
0.533178
0.533195
0.533214
0.533233
0.533253
0.533273
0.533294
0.533315
0.533335
0.533355
0.533374
0.533391
0.533406
0.533418
0.533427
0.533431
0.53343
0.533423
0.533408
0.533386
0.533355
0.533315
0.533263
0.533213
0.533139
0.533178
0.533219
0.533253
0.533279
0.5333
0.533315
0.533324
0.533329
0.53333
0.533326
0.53332
0.53331
0.533299
0.533286
0.533272
0.533257
0.533241
0.533225
0.533209
0.533193
0.533178
0.533163
0.533148
0.533134
0.533121
0.533109
0.533097
0.533086
0.533076
0.533067
0.533059
0.533051
0.533045
0.53304
0.533035
0.533031
0.533029
0.533027
0.533026
0.533026
0.533027
0.533029
0.533031
0.533035
0.53304
0.533045
0.533051
0.533059
0.533067
0.533076
0.533086
0.533097
0.533109
0.533121
0.533134
0.533148
0.533163
0.533178
0.533193
0.533209
0.533225
0.533241
0.533257
0.533272
0.533286
0.533299
0.53331
0.53332
0.533326
0.53333
0.533329
0.533324
0.533315
0.5333
0.533279
0.533253
0.533219
0.533178
0.533139
0.533079
0.53311
0.533143
0.533171
0.533194
0.533212
0.533226
0.533236
0.533243
0.533246
0.533246
0.533243
0.533238
0.533231
0.533222
0.533212
0.533201
0.53319
0.533178
0.533165
0.533153
0.533141
0.533128
0.533117
0.533105
0.533094
0.533084
0.533074
0.533065
0.533056
0.533049
0.533042
0.533035
0.53303
0.533025
0.533021
0.533018
0.533015
0.533014
0.533013
0.533013
0.533014
0.533015
0.533018
0.533021
0.533025
0.53303
0.533035
0.533042
0.533049
0.533056
0.533065
0.533074
0.533084
0.533094
0.533105
0.533117
0.533128
0.533141
0.533153
0.533165
0.533178
0.53319
0.533201
0.533212
0.533222
0.533231
0.533238
0.533243
0.533246
0.533246
0.533243
0.533236
0.533226
0.533212
0.533194
0.533171
0.533143
0.53311
0.533079
0.533029
0.533054
0.533081
0.533104
0.533123
0.533139
0.533152
0.533162
0.533169
0.533173
0.533175
0.533175
0.533173
0.533168
0.533163
0.533156
0.533149
0.53314
0.533131
0.533122
0.533112
0.533103
0.533093
0.533084
0.533074
0.533065
0.533057
0.533049
0.533041
0.533034
0.533028
0.533022
0.533016
0.533012
0.533008
0.533004
0.533001
0.532999
0.532998
0.532997
0.532997
0.532998
0.532999
0.533001
0.533004
0.533008
0.533012
0.533016
0.533022
0.533028
0.533034
0.533041
0.533049
0.533057
0.533065
0.533074
0.533084
0.533093
0.533103
0.533112
0.533122
0.533131
0.53314
0.533149
0.533156
0.533163
0.533168
0.533173
0.533175
0.533175
0.533173
0.533169
0.533162
0.533152
0.533139
0.533123
0.533104
0.533081
0.533054
0.533029
0.532986
0.533007
0.533028
0.533047
0.533063
0.533077
0.533089
0.533098
0.533105
0.53311
0.533113
0.533114
0.533114
0.533112
0.533109
0.533104
0.533099
0.533093
0.533087
0.53308
0.533072
0.533065
0.533057
0.53305
0.533043
0.533035
0.533028
0.533022
0.533016
0.53301
0.533004
0.532999
0.532995
0.532991
0.532988
0.532985
0.532982
0.532981
0.532979
0.532979
0.532979
0.532979
0.532981
0.532982
0.532985
0.532988
0.532991
0.532995
0.532999
0.533004
0.53301
0.533016
0.533022
0.533028
0.533035
0.533043
0.53305
0.533057
0.533065
0.533072
0.53308
0.533087
0.533093
0.533099
0.533104
0.533109
0.533112
0.533114
0.533114
0.533113
0.53311
0.533105
0.533098
0.533089
0.533077
0.533063
0.533047
0.533028
0.533007
0.532986
0.532948
0.532965
0.532983
0.532998
0.533012
0.533024
0.533034
0.533043
0.533049
0.533055
0.533058
0.53306
0.533061
0.53306
0.533058
0.533056
0.533052
0.533048
0.533044
0.533039
0.533033
0.533028
0.533022
0.533016
0.53301
0.533004
0.532999
0.532994
0.532989
0.532984
0.532979
0.532975
0.532972
0.532968
0.532965
0.532963
0.532961
0.53296
0.532959
0.532958
0.532958
0.532959
0.53296
0.532961
0.532963
0.532965
0.532968
0.532972
0.532975
0.532979
0.532984
0.532989
0.532994
0.532999
0.533004
0.53301
0.533016
0.533022
0.533028
0.533033
0.533039
0.533044
0.533048
0.533052
0.533056
0.533058
0.53306
0.533061
0.53306
0.533058
0.533055
0.533049
0.533043
0.533034
0.533024
0.533012
0.532998
0.532983
0.532965
0.532948
0.532914
0.532928
0.532942
0.532955
0.532967
0.532977
0.532986
0.532993
0.533
0.533005
0.533008
0.533011
0.533012
0.533012
0.533012
0.533011
0.533008
0.533006
0.533003
0.532999
0.532995
0.532991
0.532986
0.532982
0.532977
0.532973
0.532969
0.532964
0.53296
0.532957
0.532953
0.53295
0.532947
0.532944
0.532942
0.53294
0.532938
0.532937
0.532936
0.532936
0.532936
0.532936
0.532937
0.532938
0.53294
0.532942
0.532944
0.532947
0.53295
0.532953
0.532957
0.53296
0.532964
0.532969
0.532973
0.532977
0.532982
0.532986
0.532991
0.532995
0.532999
0.533003
0.533006
0.533008
0.533011
0.533012
0.533012
0.533012
0.533011
0.533008
0.533005
0.533
0.532993
0.532986
0.532977
0.532967
0.532955
0.532942
0.532928
0.532914
0.532883
0.532894
0.532906
0.532916
0.532926
0.532935
0.532942
0.532949
0.532955
0.532959
0.532963
0.532966
0.532967
0.532968
0.532969
0.532968
0.532967
0.532965
0.532963
0.532961
0.532958
0.532955
0.532952
0.532948
0.532945
0.532941
0.532938
0.532935
0.532932
0.532928
0.532926
0.532923
0.532921
0.532918
0.532917
0.532915
0.532914
0.532913
0.532912
0.532912
0.532912
0.532912
0.532913
0.532914
0.532915
0.532917
0.532918
0.532921
0.532923
0.532926
0.532928
0.532932
0.532935
0.532938
0.532941
0.532945
0.532948
0.532952
0.532955
0.532958
0.532961
0.532963
0.532965
0.532967
0.532968
0.532969
0.532968
0.532967
0.532966
0.532963
0.532959
0.532955
0.532949
0.532942
0.532935
0.532926
0.532916
0.532906
0.532894
0.532883
0.532853
0.532862
0.532872
0.532881
0.532889
0.532896
0.532903
0.532909
0.532914
0.532918
0.532921
0.532924
0.532926
0.532927
0.532928
0.532928
0.532928
0.532927
0.532925
0.532924
0.532922
0.53292
0.532917
0.532915
0.532912
0.53291
0.532907
0.532905
0.532902
0.5329
0.532898
0.532895
0.532894
0.532892
0.53289
0.532889
0.532888
0.532887
0.532887
0.532886
0.532886
0.532887
0.532887
0.532888
0.532889
0.53289
0.532892
0.532894
0.532895
0.532898
0.5329
0.532902
0.532905
0.532907
0.53291
0.532912
0.532915
0.532917
0.53292
0.532922
0.532924
0.532925
0.532927
0.532928
0.532928
0.532928
0.532927
0.532926
0.532924
0.532921
0.532918
0.532914
0.532909
0.532903
0.532896
0.532889
0.532881
0.532872
0.532862
0.532853
0.532824
0.532832
0.53284
0.532847
0.532854
0.53286
0.532866
0.532871
0.532876
0.532879
0.532883
0.532885
0.532887
0.532889
0.53289
0.53289
0.53289
0.53289
0.532889
0.532888
0.532887
0.532885
0.532884
0.532882
0.53288
0.532878
0.532876
0.532874
0.532872
0.532871
0.532869
0.532867
0.532866
0.532864
0.532863
0.532862
0.532861
0.532861
0.53286
0.53286
0.53286
0.53286
0.532861
0.532861
0.532862
0.532863
0.532864
0.532866
0.532867
0.532869
0.532871
0.532872
0.532874
0.532876
0.532878
0.53288
0.532882
0.532884
0.532885
0.532887
0.532888
0.532889
0.53289
0.53289
0.53289
0.53289
0.532889
0.532887
0.532885
0.532883
0.532879
0.532876
0.532871
0.532866
0.53286
0.532854
0.532847
0.53284
0.532832
0.532824
0.532797
0.532803
0.53281
0.532816
0.532821
0.532827
0.532831
0.532836
0.53284
0.532843
0.532846
0.532848
0.53285
0.532852
0.532853
0.532854
0.532854
0.532854
0.532854
0.532853
0.532853
0.532852
0.532851
0.532849
0.532848
0.532847
0.532845
0.532844
0.532843
0.532841
0.53284
0.532839
0.532837
0.532836
0.532836
0.532835
0.532834
0.532834
0.532833
0.532833
0.532833
0.532833
0.532834
0.532834
0.532835
0.532836
0.532836
0.532837
0.532839
0.53284
0.532841
0.532843
0.532844
0.532845
0.532847
0.532848
0.532849
0.532851
0.532852
0.532853
0.532853
0.532854
0.532854
0.532854
0.532854
0.532853
0.532852
0.53285
0.532848
0.532846
0.532843
0.53284
0.532836
0.532831
0.532827
0.532821
0.532816
0.53281
0.532803
0.532797
0.53277
0.532775
0.53278
0.532785
0.53279
0.532794
0.532799
0.532802
0.532806
0.532809
0.532811
0.532814
0.532816
0.532817
0.532818
0.532819
0.53282
0.53282
0.53282
0.53282
0.532819
0.532819
0.532818
0.532817
0.532817
0.532816
0.532815
0.532814
0.532813
0.532812
0.532811
0.53281
0.532809
0.532808
0.532807
0.532807
0.532806
0.532806
0.532806
0.532806
0.532806
0.532806
0.532806
0.532806
0.532807
0.532807
0.532808
0.532809
0.53281
0.532811
0.532812
0.532813
0.532814
0.532815
0.532816
0.532817
0.532817
0.532818
0.532819
0.532819
0.53282
0.53282
0.53282
0.53282
0.532819
0.532818
0.532817
0.532816
0.532814
0.532811
0.532809
0.532806
0.532802
0.532799
0.532794
0.53279
0.532785
0.53278
0.532775
0.53277
0.532743
0.532747
0.532752
0.532756
0.53276
0.532764
0.532767
0.53277
0.532773
0.532776
0.532778
0.53278
0.532782
0.532783
0.532785
0.532786
0.532786
0.532787
0.532787
0.532787
0.532787
0.532787
0.532786
0.532786
0.532785
0.532785
0.532784
0.532783
0.532783
0.532782
0.532781
0.53278
0.53278
0.532779
0.532779
0.532778
0.532778
0.532778
0.532777
0.532777
0.532777
0.532777
0.532778
0.532778
0.532778
0.532779
0.532779
0.53278
0.53278
0.532781
0.532782
0.532783
0.532783
0.532784
0.532785
0.532785
0.532786
0.532786
0.532787
0.532787
0.532787
0.532787
0.532787
0.532786
0.532786
0.532785
0.532783
0.532782
0.53278
0.532778
0.532776
0.532773
0.53277
0.532767
0.532764
0.53276
0.532756
0.532752
0.532747
0.532743
0.532717
0.53272
0.532724
0.532727
0.53273
0.532733
0.532736
0.532739
0.532742
0.532744
0.532746
0.532748
0.53275
0.532751
0.532752
0.532753
0.532754
0.532754
0.532755
0.532755
0.532755
0.532755
0.532755
0.532755
0.532754
0.532754
0.532753
0.532753
0.532753
0.532752
0.532752
0.532751
0.532751
0.53275
0.53275
0.53275
0.532749
0.532749
0.532749
0.532749
0.532749
0.532749
0.532749
0.532749
0.53275
0.53275
0.53275
0.532751
0.532751
0.532752
0.532752
0.532753
0.532753
0.532753
0.532754
0.532754
0.532755
0.532755
0.532755
0.532755
0.532755
0.532755
0.532754
0.532754
0.532753
0.532752
0.532751
0.53275
0.532748
0.532746
0.532744
0.532742
0.532739
0.532736
0.532733
0.53273
0.532727
0.532724
0.53272
0.532717
0.53269
0.532693
0.532696
0.532699
0.532702
0.532704
0.532707
0.532709
0.532711
0.532713
0.532715
0.532717
0.532718
0.532719
0.53272
0.532721
0.532722
0.532723
0.532723
0.532723
0.532724
0.532724
0.532724
0.532724
0.532724
0.532723
0.532723
0.532723
0.532723
0.532722
0.532722
0.532722
0.532721
0.532721
0.532721
0.532721
0.53272
0.53272
0.53272
0.53272
0.53272
0.53272
0.53272
0.53272
0.532721
0.532721
0.532721
0.532721
0.532722
0.532722
0.532722
0.532723
0.532723
0.532723
0.532723
0.532724
0.532724
0.532724
0.532724
0.532724
0.532723
0.532723
0.532723
0.532722
0.532721
0.53272
0.532719
0.532718
0.532717
0.532715
0.532713
0.532711
0.532709
0.532707
0.532704
0.532702
0.532699
0.532696
0.532693
0.53269
0.532664
0.532666
0.532669
0.532671
0.532673
0.532675
0.532677
0.532679
0.532681
0.532683
0.532684
0.532686
0.532687
0.532688
0.532689
0.53269
0.532691
0.532692
0.532692
0.532693
0.532693
0.532693
0.532693
0.532693
0.532693
0.532693
0.532693
0.532693
0.532693
0.532693
0.532692
0.532692
0.532692
0.532692
0.532692
0.532692
0.532691
0.532691
0.532691
0.532691
0.532691
0.532691
0.532691
0.532691
0.532692
0.532692
0.532692
0.532692
0.532692
0.532692
0.532693
0.532693
0.532693
0.532693
0.532693
0.532693
0.532693
0.532693
0.532693
0.532693
0.532693
0.532692
0.532692
0.532691
0.53269
0.532689
0.532688
0.532687
0.532686
0.532684
0.532683
0.532681
0.532679
0.532677
0.532675
0.532673
0.532671
0.532669
0.532666
0.532664
0.532637
0.532639
0.532641
0.532643
0.532645
0.532647
0.532648
0.53265
0.532652
0.532653
0.532655
0.532656
0.532657
0.532658
0.532659
0.53266
0.53266
0.532661
0.532662
0.532662
0.532662
0.532663
0.532663
0.532663
0.532663
0.532663
0.532663
0.532663
0.532663
0.532663
0.532663
0.532663
0.532663
0.532663
0.532663
0.532662
0.532662
0.532662
0.532662
0.532662
0.532662
0.532662
0.532662
0.532662
0.532662
0.532663
0.532663
0.532663
0.532663
0.532663
0.532663
0.532663
0.532663
0.532663
0.532663
0.532663
0.532663
0.532663
0.532663
0.532662
0.532662
0.532662
0.532661
0.53266
0.53266
0.532659
0.532658
0.532657
0.532656
0.532655
0.532653
0.532652
0.53265
0.532648
0.532647
0.532645
0.532643
0.532641
0.532639
0.532637
0.532611
0.532612
0.532614
0.532615
0.532617
0.532618
0.53262
0.532621
0.532623
0.532624
0.532625
0.532626
0.532627
0.532628
0.532629
0.53263
0.53263
0.532631
0.532631
0.532632
0.532632
0.532633
0.532633
0.532633
0.532633
0.532633
0.532633
0.532633
0.532633
0.532633
0.532633
0.532633
0.532633
0.532633
0.532633
0.532633
0.532633
0.532633
0.532633
0.532633
0.532633
0.532633
0.532633
0.532633
0.532633
0.532633
0.532633
0.532633
0.532633
0.532633
0.532633
0.532633
0.532633
0.532633
0.532633
0.532633
0.532633
0.532633
0.532633
0.532632
0.532632
0.532631
0.532631
0.53263
0.53263
0.532629
0.532628
0.532627
0.532626
0.532625
0.532624
0.532623
0.532621
0.53262
0.532618
0.532617
0.532615
0.532614
0.532612
0.532611
0.532584
0.532585
0.532587
0.532588
0.532589
0.53259
0.532591
0.532593
0.532594
0.532595
0.532596
0.532597
0.532598
0.532599
0.532599
0.5326
0.532601
0.532601
0.532602
0.532602
0.532602
0.532603
0.532603
0.532603
0.532604
0.532604
0.532604
0.532604
0.532604
0.532604
0.532604
0.532604
0.532604
0.532604
0.532604
0.532604
0.532604
0.532604
0.532604
0.532604
0.532604
0.532604
0.532604
0.532604
0.532604
0.532604
0.532604
0.532604
0.532604
0.532604
0.532604
0.532604
0.532604
0.532604
0.532604
0.532604
0.532603
0.532603
0.532603
0.532602
0.532602
0.532602
0.532601
0.532601
0.5326
0.532599
0.532599
0.532598
0.532597
0.532596
0.532595
0.532594
0.532593
0.532591
0.53259
0.532589
0.532588
0.532587
0.532585
0.532584
0.532557
0.532558
0.532559
0.53256
0.532561
0.532562
0.532563
0.532564
0.532565
0.532566
0.532567
0.532568
0.532569
0.532569
0.53257
0.532571
0.532571
0.532572
0.532572
0.532573
0.532573
0.532573
0.532574
0.532574
0.532574
0.532574
0.532574
0.532574
0.532575
0.532575
0.532575
0.532575
0.532575
0.532575
0.532575
0.532575
0.532575
0.532575
0.532575
0.532575
0.532575
0.532575
0.532575
0.532575
0.532575
0.532575
0.532575
0.532575
0.532575
0.532575
0.532575
0.532575
0.532574
0.532574
0.532574
0.532574
0.532574
0.532574
0.532573
0.532573
0.532573
0.532572
0.532572
0.532571
0.532571
0.53257
0.532569
0.532569
0.532568
0.532567
0.532566
0.532565
0.532564
0.532563
0.532562
0.532561
0.53256
0.532559
0.532558
0.532557
0.53253
0.532531
0.532532
0.532533
0.532533
0.532534
0.532535
0.532536
0.532537
0.532537
0.532538
0.532539
0.53254
0.53254
0.532541
0.532541
0.532542
0.532542
0.532543
0.532543
0.532544
0.532544
0.532544
0.532544
0.532545
0.532545
0.532545
0.532545
0.532545
0.532545
0.532545
0.532546
0.532546
0.532546
0.532546
0.532546
0.532546
0.532546
0.532546
0.532546
0.532546
0.532546
0.532546
0.532546
0.532546
0.532546
0.532546
0.532546
0.532546
0.532545
0.532545
0.532545
0.532545
0.532545
0.532545
0.532545
0.532544
0.532544
0.532544
0.532544
0.532543
0.532543
0.532542
0.532542
0.532541
0.532541
0.53254
0.53254
0.532539
0.532538
0.532537
0.532537
0.532536
0.532535
0.532534
0.532533
0.532533
0.532532
0.532531
0.53253
0.532503
0.532504
0.532504
0.532505
0.532506
0.532506
0.532507
0.532508
0.532508
0.532509
0.53251
0.53251
0.532511
0.532511
0.532512
0.532512
0.532513
0.532513
0.532514
0.532514
0.532514
0.532515
0.532515
0.532515
0.532515
0.532516
0.532516
0.532516
0.532516
0.532516
0.532516
0.532516
0.532516
0.532517
0.532517
0.532517
0.532517
0.532517
0.532517
0.532517
0.532517
0.532517
0.532517
0.532517
0.532517
0.532517
0.532517
0.532516
0.532516
0.532516
0.532516
0.532516
0.532516
0.532516
0.532516
0.532515
0.532515
0.532515
0.532515
0.532514
0.532514
0.532514
0.532513
0.532513
0.532512
0.532512
0.532511
0.532511
0.53251
0.53251
0.532509
0.532508
0.532508
0.532507
0.532506
0.532506
0.532505
0.532504
0.532504
0.532503
0.532476
0.532476
0.532477
0.532477
0.532478
0.532478
0.532479
0.532479
0.53248
0.53248
0.532481
0.532482
0.532482
0.532482
0.532483
0.532483
0.532484
0.532484
0.532485
0.532485
0.532485
0.532485
0.532486
0.532486
0.532486
0.532486
0.532487
0.532487
0.532487
0.532487
0.532487
0.532487
0.532487
0.532487
0.532487
0.532488
0.532488
0.532488
0.532488
0.532488
0.532488
0.532488
0.532488
0.532488
0.532488
0.532487
0.532487
0.532487
0.532487
0.532487
0.532487
0.532487
0.532487
0.532487
0.532486
0.532486
0.532486
0.532486
0.532485
0.532485
0.532485
0.532485
0.532484
0.532484
0.532483
0.532483
0.532482
0.532482
0.532482
0.532481
0.53248
0.53248
0.532479
0.532479
0.532478
0.532478
0.532477
0.532477
0.532476
0.532476
0.532448
0.532449
0.532449
0.532449
0.53245
0.53245
0.532451
0.532451
0.532452
0.532452
0.532453
0.532453
0.532453
0.532454
0.532454
0.532455
0.532455
0.532455
0.532456
0.532456
0.532456
0.532456
0.532457
0.532457
0.532457
0.532457
0.532458
0.532458
0.532458
0.532458
0.532458
0.532458
0.532458
0.532458
0.532458
0.532458
0.532459
0.532459
0.532459
0.532459
0.532459
0.532459
0.532459
0.532459
0.532458
0.532458
0.532458
0.532458
0.532458
0.532458
0.532458
0.532458
0.532458
0.532458
0.532457
0.532457
0.532457
0.532457
0.532456
0.532456
0.532456
0.532456
0.532455
0.532455
0.532455
0.532454
0.532454
0.532453
0.532453
0.532453
0.532452
0.532452
0.532451
0.532451
0.53245
0.53245
0.532449
0.532449
0.532449
0.532448
0.532421
0.532421
0.532421
0.532422
0.532422
0.532422
0.532423
0.532423
0.532423
0.532424
0.532424
0.532425
0.532425
0.532425
0.532426
0.532426
0.532426
0.532426
0.532427
0.532427
0.532427
0.532428
0.532428
0.532428
0.532428
0.532428
0.532429
0.532429
0.532429
0.532429
0.532429
0.532429
0.532429
0.532429
0.532429
0.532429
0.53243
0.53243
0.53243
0.53243
0.53243
0.53243
0.53243
0.53243
0.532429
0.532429
0.532429
0.532429
0.532429
0.532429
0.532429
0.532429
0.532429
0.532429
0.532428
0.532428
0.532428
0.532428
0.532428
0.532427
0.532427
0.532427
0.532426
0.532426
0.532426
0.532426
0.532425
0.532425
0.532425
0.532424
0.532424
0.532423
0.532423
0.532423
0.532422
0.532422
0.532422
0.532421
0.532421
0.532421
0.532393
0.532393
0.532393
0.532394
0.532394
0.532394
0.532395
0.532395
0.532395
0.532395
0.532396
0.532396
0.532396
0.532397
0.532397
0.532397
0.532397
0.532398
0.532398
0.532398
0.532398
0.532399
0.532399
0.532399
0.532399
0.532399
0.5324
0.5324
0.5324
0.5324
0.5324
0.5324
0.5324
0.5324
0.5324
0.5324
0.532401
0.532401
0.532401
0.532401
0.532401
0.532401
0.532401
0.532401
0.5324
0.5324
0.5324
0.5324
0.5324
0.5324
0.5324
0.5324
0.5324
0.5324
0.532399
0.532399
0.532399
0.532399
0.532399
0.532398
0.532398
0.532398
0.532398
0.532397
0.532397
0.532397
0.532397
0.532396
0.532396
0.532396
0.532395
0.532395
0.532395
0.532395
0.532394
0.532394
0.532394
0.532393
0.532393
0.532393
0.532365
0.532365
0.532366
0.532366
0.532366
0.532366
0.532366
0.532367
0.532367
0.532367
0.532367
0.532368
0.532368
0.532368
0.532368
0.532369
0.532369
0.532369
0.532369
0.53237
0.53237
0.53237
0.53237
0.53237
0.53237
0.532371
0.532371
0.532371
0.532371
0.532371
0.532371
0.532371
0.532371
0.532371
0.532372
0.532372
0.532372
0.532372
0.532372
0.532372
0.532372
0.532372
0.532372
0.532372
0.532372
0.532372
0.532371
0.532371
0.532371
0.532371
0.532371
0.532371
0.532371
0.532371
0.532371
0.53237
0.53237
0.53237
0.53237
0.53237
0.53237
0.532369
0.532369
0.532369
0.532369
0.532368
0.532368
0.532368
0.532368
0.532367
0.532367
0.532367
0.532367
0.532366
0.532366
0.532366
0.532366
0.532366
0.532365
0.532365
0.532337
0.532337
0.532338
0.532338
0.532338
0.532338
0.532338
0.532338
0.532339
0.532339
0.532339
0.532339
0.532339
0.53234
0.53234
0.53234
0.53234
0.53234
0.532341
0.532341
0.532341
0.532341
0.532341
0.532341
0.532342
0.532342
0.532342
0.532342
0.532342
0.532342
0.532342
0.532342
0.532343
0.532343
0.532343
0.532343
0.532343
0.532343
0.532343
0.532343
0.532343
0.532343
0.532343
0.532343
0.532343
0.532343
0.532343
0.532343
0.532342
0.532342
0.532342
0.532342
0.532342
0.532342
0.532342
0.532342
0.532342
0.532341
0.532341
0.532341
0.532341
0.532341
0.53234
0.53234
0.53234
0.53234
0.53234
0.532339
0.532339
0.532339
0.532339
0.532339
0.532338
0.532338
0.532338
0.532338
0.532338
0.532338
0.532337
0.532337
0.532309
0.532309
0.532309
0.53231
0.53231
0.53231
0.53231
0.53231
0.53231
0.53231
0.532311
0.532311
0.532311
0.532311
0.532311
0.532311
0.532312
0.532312
0.532312
0.532312
0.532312
0.532312
0.532313
0.532313
0.532313
0.532313
0.532313
0.532313
0.532313
0.532313
0.532314
0.532314
0.532314
0.532314
0.532314
0.532314
0.532314
0.532314
0.532314
0.532314
0.532314
0.532314
0.532314
0.532314
0.532314
0.532314
0.532314
0.532314
0.532314
0.532314
0.532313
0.532313
0.532313
0.532313
0.532313
0.532313
0.532313
0.532313
0.532312
0.532312
0.532312
0.532312
0.532312
0.532312
0.532311
0.532311
0.532311
0.532311
0.532311
0.532311
0.53231
0.53231
0.53231
0.53231
0.53231
0.53231
0.53231
0.532309
0.532309
0.532309
0.532281
0.532281
0.532281
0.532281
0.532281
0.532282
0.532282
0.532282
0.532282
0.532282
0.532282
0.532282
0.532282
0.532283
0.532283
0.532283
0.532283
0.532283
0.532283
0.532284
0.532284
0.532284
0.532284
0.532284
0.532284
0.532284
0.532284
0.532284
0.532285
0.532285
0.532285
0.532285
0.532285
0.532285
0.532285
0.532285
0.532285
0.532285
0.532285
0.532285
0.532285
0.532285
0.532285
0.532285
0.532285
0.532285
0.532285
0.532285
0.532285
0.532285
0.532285
0.532285
0.532284
0.532284
0.532284
0.532284
0.532284
0.532284
0.532284
0.532284
0.532284
0.532283
0.532283
0.532283
0.532283
0.532283
0.532283
0.532282
0.532282
0.532282
0.532282
0.532282
0.532282
0.532282
0.532282
0.532281
0.532281
0.532281
0.532281
0.532281
0.532253
0.532253
0.532253
0.532253
0.532253
0.532253
0.532253
0.532253
0.532254
0.532254
0.532254
0.532254
0.532254
0.532254
0.532254
0.532254
0.532255
0.532255
0.532255
0.532255
0.532255
0.532255
0.532255
0.532255
0.532255
0.532256
0.532256
0.532256
0.532256
0.532256
0.532256
0.532256
0.532256
0.532256
0.532256
0.532256
0.532256
0.532256
0.532256
0.532256
0.532256
0.532256
0.532256
0.532256
0.532256
0.532256
0.532256
0.532256
0.532256
0.532256
0.532256
0.532256
0.532256
0.532256
0.532256
0.532255
0.532255
0.532255
0.532255
0.532255
0.532255
0.532255
0.532255
0.532255
0.532254
0.532254
0.532254
0.532254
0.532254
0.532254
0.532254
0.532254
0.532253
0.532253
0.532253
0.532253
0.532253
0.532253
0.532253
0.532253
0.532225
0.532225
0.532225
0.532225
0.532225
0.532225
0.532225
0.532225
0.532225
0.532225
0.532225
0.532225
0.532226
0.532226
0.532226
0.532226
0.532226
0.532226
0.532226
0.532226
0.532226
0.532226
0.532227
0.532227
0.532227
0.532227
0.532227
0.532227
0.532227
0.532227
0.532227
0.532227
0.532227
0.532227
0.532227
0.532227
0.532227
0.532227
0.532228
0.532228
0.532228
0.532228
0.532227
0.532227
0.532227
0.532227
0.532227
0.532227
0.532227
0.532227
0.532227
0.532227
0.532227
0.532227
0.532227
0.532227
0.532227
0.532227
0.532226
0.532226
0.532226
0.532226
0.532226
0.532226
0.532226
0.532226
0.532226
0.532226
0.532225
0.532225
0.532225
0.532225
0.532225
0.532225
0.532225
0.532225
0.532225
0.532225
0.532225
0.532225
0.532196
0.532196
0.532196
0.532197
0.532197
0.532197
0.532197
0.532197
0.532197
0.532197
0.532197
0.532197
0.532197
0.532197
0.532197
0.532197
0.532197
0.532198
0.532198
0.532198
0.532198
0.532198
0.532198
0.532198
0.532198
0.532198
0.532198
0.532198
0.532198
0.532198
0.532199
0.532199
0.532199
0.532199
0.532199
0.532199
0.532199
0.532199
0.532199
0.532199
0.532199
0.532199
0.532199
0.532199
0.532199
0.532199
0.532199
0.532199
0.532199
0.532199
0.532198
0.532198
0.532198
0.532198
0.532198
0.532198
0.532198
0.532198
0.532198
0.532198
0.532198
0.532198
0.532198
0.532197
0.532197
0.532197
0.532197
0.532197
0.532197
0.532197
0.532197
0.532197
0.532197
0.532197
0.532197
0.532197
0.532197
0.532196
0.532196
0.532196
0.532168
0.532168
0.532168
0.532168
0.532168
0.532168
0.532168
0.532168
0.532168
0.532168
0.532168
0.532169
0.532169
0.532169