/*--------------------------------*- C++ -*----------------------------------*\
  =========                 |
  \\      /  F ield         | OpenFOAM: The Open Source CFD Toolbox
   \\    /   O peration     | Website:  https://openfoam.org
    \\  /    A nd           | Version:  11
     \\/     M anipulation  |
\*---------------------------------------------------------------------------*/
FoamFile
{
    format      ascii;
    class       volScalarField;
    location    "100";
    object      C;
}
// * * * * * * * * * * * * * * * * * * * * * * * * * * * * * * * * * * * * * //

dimensions      [0 0 0 1 0 0 0];

internalField   nonuniform List<scalar> 
427520
(
-2.78289e-311
-1.17388e-312
-7.36553e-312
7.08545e-312
6.54497e-312
6.78677e-312
1.36804e-311
6.49593e-312
-2.08304e-311
-3.03733e-311
-6.91398e-312
2.48465e-312
1.13948e-311
3.47326e-311
2.10298e-311
8.88252e-312
1.21311e-311
8.29471e-312
1.35457e-311
1.13463e-311
-9.17995e-314
1.77529e-312
-1.69888e-311
-1.43081e-311
3.92877e-312
1.49261e-311
2.43908e-312
-4.99007e-312
1.06431e-313
-9.71832e-312
-1.26351e-311
2.03462e-312
-1.26682e-311
-1.8017e-311
8.49855e-312
-4.90665e-312
6.14444e-313
-1.86741e-312
-2.85088e-311
-3.25662e-312
-1.48183e-311
-1.10144e-311
-1.23721e-311
-1.46011e-311
7.20384e-312
1.33536e-311
1.63447e-311
2.46951e-311
1.92229e-311
1.50693e-311
-1.4897e-311
-5.01359e-312
-1.01911e-311
-1.43499e-311
6.25424e-312
-2.2514e-311
-1.91762e-311
3.19377e-312
1.77641e-311
1.84736e-311
2.5774e-311
2.2233e-311
3.28066e-311
3.90356e-311
1.69178e-311
1.19049e-311
2.71758e-312
-7.43295e-312
-2.54728e-311
-1.24568e-311
5.25581e-313
-1.05308e-312
-4.79389e-312
7.26121e-312
-3.62823e-312
-8.00179e-312
1.21046e-311
4.41147e-312
5.64837e-312
5.87455e-312
9.29937e-311
8.2445e-311
2.75305e-311
3.01373e-311
4.17762e-313
-1.28273e-311
-6.49571e-311
-5.87845e-311
-6.21788e-311
-4.67994e-311
-3.40361e-311
2.34137e-311
2.67667e-312
2.03851e-311
3.96731e-311
5.88123e-311
3.92851e-311
2.52747e-311
3.1568e-311
1.58426e-311
1.46168e-311
3.23301e-311
1.25523e-311
3.80542e-311
2.13309e-311
3.58806e-311
3.1866e-311
1.57968e-311
1.95724e-311
-5.2803e-312
-2.00168e-311
-6.29056e-312
-2.15086e-311
-4.99257e-311
-3.0258e-311
3.1178e-312
2.603e-311
1.9698e-311
2.44971e-311
4.46036e-311
-2.07791e-312
1.25824e-311
-1.02878e-311
2.0312e-311
1.65072e-311
-3.62466e-311
-1.8395e-311
-2.31833e-311
-3.21636e-311
-1.23002e-311
2.9238e-311
2.11061e-311
-1.59595e-311
2.00763e-312
-7.61485e-312
-5.73844e-311
-5.69178e-311
-2.14223e-311
-6.45713e-311
-6.67875e-311
-2.57081e-311
-4.23398e-312
2.92703e-313
-3.88661e-313
6.06116e-312
1.02914e-311
8.09655e-312
-1.03237e-312
1.10285e-311
9.45475e-312
1.02789e-311
1.18472e-311
3.56527e-311
-1.09702e-311
-2.25549e-311
-2.74714e-311
-1.33561e-311
3.87516e-311
2.20027e-311
1.29459e-311
-2.85831e-311
2.11249e-312
1.45279e-311
1.52871e-311
8.70836e-312
-1.93763e-311
-4.80311e-311
-7.04593e-311
-5.55858e-311
-4.49366e-311
-3.55596e-311
-2.55402e-311
-2.24427e-311
-3.07239e-311
6.8217e-312
4.98974e-311
8.34748e-311
8.21026e-311
6.19033e-311
2.32567e-311
3.83839e-311
4.32857e-311
6.51039e-311
5.19238e-311
3.89947e-311
4.57843e-311
4.48897e-311
3.88726e-311
4.95986e-311
1.60091e-311
1.99752e-311
-8.95941e-312
-4.2369e-311
-5.29277e-311
-2.93872e-311
-1.95337e-311
1.80325e-311
3.98533e-311
-9.92933e-312
-2.58555e-311
-4.80781e-311
-9.15696e-313
-8.65218e-312
1.53228e-311
-9.7745e-312
-1.46039e-311
-1.91806e-311
-1.24215e-311
-2.94235e-311
-2.24002e-311
1.89815e-312
-9.4387e-312
1.0264e-311
3.05264e-312
-5.5654e-312
-4.59474e-311
-4.00571e-311
-2.49306e-311
-2.82581e-311
-3.19346e-311
-3.65275e-311
-3.41354e-311
-3.41084e-311
1.26998e-311
1.44468e-311
5.7833e-311
3.06489e-311
5.89263e-312
8.46113e-312
1.40281e-311
2.85713e-311
5.61113e-311
5.41809e-311
2.20229e-311
2.1758e-311
3.55838e-311
4.91753e-311
6.54659e-311
3.30824e-311
-8.52802e-312
6.26217e-311
7.56148e-311
7.41181e-311
5.1481e-311
1.47512e-311
-2.07569e-311
-3.38156e-311
-9.68614e-311
-6.58265e-311
-6.06546e-311
-5.62522e-311
-6.87825e-311
-8.90988e-311
-5.56466e-311
-2.64815e-311
2.75366e-311
5.26097e-311
4.89508e-311
4.40072e-311
4.93239e-311
2.92294e-311
1.25678e-311
2.18541e-311
4.6092e-311
3.93456e-311
3.34428e-311
-7.67684e-312
-1.32329e-311
-3.39944e-312
3.69676e-311
-1.60477e-311
-2.61728e-311
-4.50968e-311
-2.9136e-311
-1.94086e-311
1.03272e-311
2.23874e-311
5.02645e-311
2.45801e-311
-1.55087e-311
-3.13217e-311
-3.03674e-312
-2.07106e-311
2.939e-311
2.36517e-311
5.14156e-312
3.14955e-312
-1.34906e-312
-2.01303e-311
1.77358e-311
4.927e-311
9.19054e-312
1.74314e-311
9.80029e-312
8.7675e-312
4.00846e-312
-2.93105e-311
-1.33196e-311
9.4831e-312
1.28093e-311
-1.90892e-311
-6.78638e-311
-5.45868e-311
-2.60306e-311
2.03477e-311
4.53764e-311
4.52566e-311
6.47402e-311
2.41996e-311
1.46613e-311
1.64714e-311
1.79e-311
3.03471e-311
2.61637e-311
1.94007e-311
5.03437e-311
6.2181e-311
7.99691e-311
4.79487e-311
1.65475e-311
6.85117e-311
8.83165e-311
8.11122e-311
1.01424e-310
3.56131e-311
4.50781e-312
-1.70159e-311
-6.90016e-311
-1.01744e-310
-8.02534e-311
-6.85325e-311
-8.56672e-311
-1.10643e-310
-1.09795e-310
-2.59691e-311
1.4664e-311
3.24713e-311
5.67812e-311
4.02846e-311
4.76213e-311
3.30266e-311
3.72258e-311
3.56343e-311
5.48243e-311
1.63115e-311
4.53244e-311
2.85499e-311
9.3763e-312
1.44539e-311
2.00805e-311
-2.49974e-311
-4.64915e-311
-4.39844e-311
-5.51249e-311
-6.85423e-311
-6.06996e-311
-3.29125e-311
8.01623e-312
-6.63777e-312
-1.0449e-311
-6.84945e-312
-1.8247e-311
-5.00161e-311
-2.00247e-311
2.1729e-311
9.12179e-313
1.64901e-311
4.29463e-311
1.76816e-311
5.29441e-311
5.00838e-311
4.19498e-312
-1.03153e-311
-1.04692e-311
1.86869e-311
8.51805e-312
-8.11536e-312
-2.15889e-311
1.68163e-311
-6.98783e-312
-1.99818e-311
-2.19973e-311
-4.30025e-311
-1.9085e-311
2.31103e-311
4.95544e-311
6.95789e-311
8.46244e-311
6.02524e-311
3.28004e-311
1.53877e-311
5.31834e-313
-1.82004e-311
-1.48466e-311
2.05583e-311
2.95277e-311
7.01376e-311
8.71172e-311
7.91032e-311
5.27828e-311
-1.26862e-310
-7.33327e-311
-1.74692e-311
2.6776e-311
2.9311e-311
1.95067e-311
-2.95302e-312
-4.94385e-311
-9.3405e-311
-1.01306e-310
-5.95586e-311
-4.85899e-311
-1.02679e-310
-9.04893e-311
-2.53904e-311
1.24043e-311
2.73115e-311
3.98135e-311
4.94043e-311
2.60251e-311
1.98742e-311
2.02851e-311
1.56913e-311
4.92014e-311
1.41831e-311
6.68676e-311
6.26094e-311
1.74899e-311
2.21329e-311
2.72507e-311
3.95286e-312
-5.65587e-312
-8.09645e-311
-6.4421e-311
-8.75411e-311
-1.02316e-310
-1.02058e-310
-7.86652e-311
-2.85117e-311
-1.25543e-311
8.72482e-312
-5.48336e-312
-5.56175e-311
-5.53033e-311
-3.57511e-311
-3.41543e-311
-2.31372e-311
1.36282e-311
2.07751e-311
3.92544e-311
2.11698e-311
1.86916e-311
-1.33765e-311
6.37115e-312
2.13087e-311
7.54446e-312
-3.25913e-311
-6.39469e-311
-4.37219e-311
-2.65612e-311
1.2068e-311
2.10911e-313
-2.38103e-311
-1.41325e-311
1.60856e-311
2.99017e-311
3.20316e-311
4.86159e-311
5.42935e-311
2.35678e-311
1.57968e-311
1.75477e-311
2.07484e-311
-1.0781e-311
-8.95135e-312
-7.64338e-312
2.09265e-312
3.2889e-311
6.10821e-311
8.35446e-311
-1.71056e-310
-8.39077e-311
-8.95812e-311
-7.9875e-311
-5.25343e-311
-4.32783e-311
-2.5074e-311
-5.24273e-314
-1.85543e-311
-8.23971e-311
-6.66659e-311
-4.96675e-311
-7.21207e-311
-8.24048e-311
-5.90621e-311
-1.94933e-311
2.3961e-311
9.06782e-312
2.99772e-311
1.74182e-311
1.3185e-311
1.57536e-311
2.3008e-311
2.94571e-311
4.34523e-311
2.99026e-311
5.56445e-311
5.67426e-311
5.98987e-311
3.84832e-311
2.92942e-312
-3.68925e-311
-7.06541e-311
-5.91331e-311
-1.18564e-310
-1.10288e-310
-1.20966e-310
-1.10539e-310
-3.70973e-311
-2.47737e-311
-1.45936e-312
-1.78212e-311
-3.26696e-311
-3.32468e-311
-4.12367e-311
-2.64693e-311
1.84328e-311
6.5506e-311
5.45074e-311
5.78335e-311
5.75621e-311
2.45372e-311
1.57441e-311
3.55119e-311
2.68994e-311
-1.0429e-311
-8.95661e-312
-3.09961e-311
-4.01856e-311
-6.82037e-312
1.31838e-311
5.41889e-312
3.13174e-311
2.86828e-311
1.33796e-311
1.15489e-311
2.30086e-311
2.39009e-311
3.63493e-311
4.94595e-312
-2.79327e-312
1.10913e-311
-1.59963e-311
-1.42828e-311
-1.2495e-313
3.27897e-311
-2.54959e-311
-4.24997e-311
-1.66563e-311
8.33549e-311
-3.58972e-310
-3.29843e-310
-2.45839e-310
-2.27061e-310
-1.97405e-310
-1.44239e-310
-8.87144e-311
-7.50802e-311
-7.28805e-311
-7.08242e-311
-7.97293e-311
-7.26462e-311
-9.44697e-311
-7.97037e-311
-6.01817e-311
-4.82956e-311
3.32906e-312
-2.89473e-312
1.94874e-312
7.47275e-312
8.0449e-312
-3.968e-312
4.09086e-311
2.70123e-311
3.35767e-311
4.06686e-311
4.09106e-311
4.94877e-311
6.50616e-311
3.68877e-311
-9.82229e-312
-1.43959e-311
-5.66644e-311
-8.56836e-311
-1.38746e-310
-1.32366e-310
-1.27592e-310
-9.09626e-311
-2.15085e-311
-4.33704e-312
-2.82102e-312
1.33257e-311
9.36672e-312
1.51312e-311
-1.17382e-311
-1.07398e-311
4.97916e-312
5.54572e-311
5.32734e-311
7.34365e-311
7.25855e-311
4.04011e-311
1.38793e-311
4.38006e-311
3.78235e-311
1.39142e-311
4.20638e-311
4.12758e-311
1.17914e-311
-1.67885e-311
-1.36669e-311
8.15704e-312
1.4734e-311
1.61087e-311
-2.38111e-311
-4.22978e-311
-2.62587e-311
-7.34033e-313
-1.25283e-311
-2.14997e-311
-6.28801e-312
3.1791e-312
1.52805e-311
-1.34304e-311
2.91627e-311
3.2674e-311
8.9968e-311
1.24267e-310
2.01789e-310
2.91985e-310
-2.48408e-310
-2.61482e-310
-2.2379e-310
-2.32218e-310
-1.89419e-310
-1.36716e-310
-1.76159e-310
-1.64557e-310
-1.74176e-310
-1.48101e-310
-1.02954e-310
-1.09818e-310
-9.85722e-311
-1.0623e-310
-9.42541e-311
-7.11504e-311
-4.44789e-311
-4.52547e-311
-2.6245e-311
-1.18775e-311
-7.20172e-312
-1.49439e-312
1.22299e-311
1.05871e-311
-9.25816e-312
2.89692e-311
5.26315e-311
2.43575e-311
2.25325e-311
-9.91351e-312
-4.67917e-311
-4.38051e-311
-7.5376e-311
-7.37508e-311
-1.22642e-310
-1.03337e-310
-9.32747e-311
-8.95236e-311
-4.69849e-312
1.43862e-311
3.27124e-311
5.05947e-311
4.56628e-311
4.27642e-311
-1.32711e-311
1.83017e-311
3.39308e-311
5.73412e-311
7.32798e-311
8.14445e-311
5.37496e-311
3.26424e-311
4.77754e-311
6.68468e-311
5.39028e-311
5.20068e-311
6.52603e-311
5.91238e-311
3.92633e-311
-7.16394e-312
-4.02826e-312
3.56649e-311
1.81138e-311
-3.33926e-311
-5.98722e-311
-1.62563e-311
9.23728e-312
2.63176e-311
9.30413e-312
-1.57647e-311
-1.29385e-311
-1.3878e-311
4.72389e-312
9.92732e-312
1.51435e-311
7.1888e-311
1.35397e-310
2.12523e-310
3.33118e-310
4.09609e-310
-5.69485e-311
-6.3281e-311
-6.88748e-311
-9.30483e-311
-1.30934e-310
-1.18335e-310
-1.2111e-310
-1.23287e-310
-1.11559e-310
-1.26448e-310
-8.79397e-311
-9.99943e-311
-1.15864e-310
-8.08605e-311
-8.68494e-311
-5.32197e-311
-2.75221e-311
-2.78153e-311
4.85016e-312
7.33994e-312
-5.89175e-312
-9.51751e-313
5.15478e-312
-5.16468e-312
-4.12682e-311
-1.22555e-311
3.51509e-311
5.99202e-311
4.6228e-311
6.32625e-312
-6.01887e-311
-5.45263e-311
-7.64954e-311
-9.77825e-311
-7.86267e-311
-3.37472e-311
-6.70672e-311
-8.84491e-311
-4.99175e-311
2.2011e-311
6.46825e-311
6.03208e-311
2.71397e-311
3.54946e-311
1.15273e-311
2.60125e-311
6.91518e-311
8.14408e-311
9.84911e-311
8.63861e-311
3.75211e-311
8.95393e-312
2.46911e-311
5.92872e-311
2.38267e-311
5.67579e-311
5.11032e-311
4.54029e-311
3.91923e-311
1.33627e-311
-2.25391e-311
-1.59697e-311
-2.81657e-311
-1.48655e-311
9.82631e-313
5.51123e-311
1.79167e-311
1.66589e-311
-1.4189e-311
-4.88559e-311
-5.56705e-311
-4.16286e-311
-4.63821e-311
8.61126e-312
5.81986e-311
1.50273e-310
2.22256e-310
3.01073e-310
3.60192e-310
3.52388e-310
-5.70959e-311
-2.76945e-311
4.21983e-312
-8.38028e-312
-3.69299e-311
-6.42831e-311
-7.66285e-311
-1.3113e-310
-1.25656e-310
-1.24545e-310
-8.12079e-311
-9.92892e-311
-1.09349e-310
-9.39364e-311
-8.85194e-311
-8.4008e-311
-7.45438e-311
-5.91373e-311
-5.17872e-311
-4.95464e-311
-1.66674e-311
1.63369e-311
1.07826e-311
3.3349e-312
-1.87524e-312
-4.63453e-312
2.37552e-312
5.00439e-311
4.39814e-311
7.10033e-312
-5.69899e-311
-7.05682e-311
-9.04863e-311
-9.30039e-311
-8.90104e-311
-6.40734e-311
-6.02196e-311
-6.97957e-311
-5.17016e-311
-2.70871e-311
2.31693e-311
5.21162e-312
-3.30458e-311
1.24509e-311
3.46271e-311
3.50374e-311
6.20278e-311
5.00625e-311
3.70999e-311
5.63771e-311
5.9088e-311
2.53857e-311
-1.99675e-311
-3.07744e-312
2.08158e-312
4.72637e-311
4.8839e-311
4.49906e-311
4.64588e-311
2.06933e-311
-1.7794e-311
-2.16185e-311
-2.78695e-311
-1.11552e-311
1.46624e-311
5.2142e-311
1.92874e-311
-1.14081e-311
-5.54837e-311
-3.15506e-311
-4.28352e-311
-6.0673e-311
-4.1928e-311
7.12618e-311
1.44765e-310
1.64974e-310
2.20212e-310
2.62368e-310
3.20257e-310
3.58018e-310
-4.92635e-311
-4.51937e-311
-1.18299e-311
-4.64112e-311
-6.72809e-311
-1.37764e-310
-1.55812e-310
-1.57294e-310
-1.65462e-310
-2.01802e-310
-1.53057e-310
-1.69786e-310
-1.4991e-310
-1.08122e-310
-1.27736e-310
-1.36921e-310
-1.06113e-310
-8.67128e-311
-6.67049e-311
-3.83846e-311
-3.21677e-311
4.61324e-312
3.44252e-312
1.3263e-312
1.75561e-311
2.19579e-311
1.037e-311
5.45625e-311
3.67225e-311
-9.41773e-313
-1.40902e-312
-2.77059e-311
-1.12491e-310
-1.08639e-310
-9.1829e-311
-6.57049e-311
-6.24664e-311
-7.19107e-311
-4.54338e-311
-1.63655e-311
-1.86601e-312
-3.7522e-312
-5.24431e-311
-1.53913e-312
3.64952e-311
3.82703e-311
4.55498e-311
5.24127e-311
4.6766e-311
4.57314e-311
3.60979e-311
4.36711e-311
1.21458e-311
1.3665e-311
2.41328e-311
6.2877e-311
7.52955e-311
6.738e-311
4.92646e-311
5.28562e-311
3.35773e-312
3.02833e-311
-1.22411e-312
2.84571e-311
8.04647e-312
2.48883e-311
2.54826e-311
1.4841e-312
-3.38911e-311
-3.26499e-311
-4.72402e-311
-2.4158e-311
3.37164e-311
1.24595e-310
1.79226e-310
1.64998e-310
2.08337e-310
2.44031e-310
2.46621e-310
2.60297e-310
4.49186e-311
1.41979e-311
3.36898e-313
-5.85172e-311
-1.14111e-310
-2.07181e-310
-2.23753e-310
-1.73214e-310
-1.41747e-310
-1.44892e-310
-2.0979e-310
-1.96245e-310
-1.75943e-310
-1.19836e-310
-1.41254e-310
-1.00062e-310
-9.56237e-311
-1.3413e-310
-8.53564e-311
-4.5283e-311
-3.97603e-311
-1.13818e-311
-3.67399e-311
-5.49044e-312
3.94031e-311
3.78647e-311
3.19734e-311
6.0767e-311
2.36368e-311
2.34067e-311
-1.25405e-311
-5.39629e-313
-6.6733e-311
-1.09196e-310
-1.0486e-310
-1.01408e-310
-9.42003e-311
-7.59586e-311
-6.74058e-311
-2.76431e-311
-2.33343e-311
-4.44858e-311
-2.75669e-311
-1.53557e-311
2.48384e-311
7.96989e-311
6.70507e-311
4.30275e-311
3.35923e-311
6.02335e-311
5.56626e-311
5.75729e-311
2.24285e-311
5.07092e-311
3.22482e-311
7.03394e-311
1.01845e-310
7.12808e-311
6.30835e-311
5.71863e-311
-5.26192e-312
6.90034e-312
1.60939e-311
1.28804e-311
6.8544e-312
3.37523e-311
4.35887e-311
5.45518e-311
-1.98095e-312
-2.00439e-311
-6.42777e-312
1.06471e-311
1.1844e-310
1.5817e-310
1.73461e-310
1.32579e-310
1.55451e-310
1.43457e-310
2.02916e-310
2.79531e-310
2.73466e-310
1.50577e-310
5.19442e-311
-4.17389e-311
-1.02477e-310
-2.05488e-310
-2.03525e-310
-2.14404e-310
-1.76414e-310
-1.79337e-310
-2.27019e-310
-1.80649e-310
-1.65305e-310
-1.36004e-310
-1.59674e-310
-1.74065e-310
-1.34849e-310
-1.08387e-310
-5.81514e-311
-3.77355e-311
-2.76936e-311
-2.66915e-311
-5.1865e-311
5.21184e-312
3.71806e-312
-1.00454e-311
3.90495e-312
2.09963e-311
3.42525e-312
-3.7778e-311
-4.34664e-311
-4.27976e-311
-5.01455e-311
-9.91693e-311
-8.05212e-311
-9.1749e-311
-6.13589e-311
-4.66117e-311
-2.18012e-311
-2.01851e-311
-2.73752e-311
-2.47046e-311
-2.04872e-311
-2.4847e-311
3.55696e-311
6.65634e-311
7.72974e-311
6.11484e-311
6.84783e-311
6.35447e-311
7.44869e-311
7.701e-311
3.18064e-311
3.32468e-311
6.53125e-311
6.09525e-311
7.85167e-311
8.73602e-311
5.93409e-311
3.10867e-311
-4.17408e-312
1.26563e-311
1.38618e-311
2.21675e-311
2.08023e-311
2.14659e-311
4.44869e-311
6.25019e-311
-3.38843e-312
-5.10143e-312
1.1631e-311
4.27574e-311
9.79009e-311
1.57538e-310
1.21439e-310
8.40642e-311
7.55782e-311
7.00955e-311
7.62065e-311
9.77256e-311
1.11605e-310
9.39586e-311
3.44905e-311
-2.79813e-311
-9.01853e-311
-1.61988e-310
-1.9338e-310
-2.25143e-310
-1.88429e-310
-1.59962e-310
-1.40873e-310
-1.45054e-310
-1.06824e-310
-1.15147e-310
-1.57393e-310
-1.54398e-310
-9.4326e-311
-1.14584e-310
-6.245e-311
-2.2673e-311
-4.11941e-311
-1.83061e-311
-1.28376e-311
2.02111e-311
-7.14308e-312
-9.08452e-312
1.18059e-312
-8.93485e-312
-1.86422e-311
-5.68105e-311
-5.97039e-311
-5.96763e-311
-7.01684e-311
-6.78948e-311
-6.71923e-311
-4.67679e-311
-4.40718e-311
-6.82474e-311
-7.41158e-311
-6.68569e-311
-4.19835e-311
-4.51999e-311
-3.68286e-312
-1.52906e-311
1.75365e-311
3.89397e-311
6.59829e-311
8.45282e-311
7.26297e-311
5.77493e-311
5.71364e-311
4.19559e-311
5.65417e-311
7.87699e-311
1.12272e-310
7.55952e-311
7.73417e-311
5.97416e-311
6.71717e-311
2.93636e-311
6.47254e-311
7.57158e-311
5.08824e-311
4.16467e-312
2.96474e-311
3.95898e-311
4.47945e-311
9.63391e-312
-5.90906e-311
-5.46547e-311
-3.91344e-311
6.28382e-311
7.54672e-311
7.194e-311
4.71653e-311
1.86257e-311
6.75302e-312
9.95108e-313
-5.94355e-311
-9.28889e-311
-9.37611e-311
-8.37001e-311
-1.09191e-310
-1.30191e-310
-9.90937e-311
-1.36532e-310
-1.56691e-310
-1.2931e-310
-1.26207e-310
-1.61729e-310
-1.46076e-310
-1.36722e-310
-1.2268e-310
-1.24286e-310
-1.34406e-310
-1.24436e-310
-6.62696e-311
-6.85063e-311
-4.75892e-311
-1.80696e-311
-3.75847e-311
-5.43297e-311
-1.9785e-311
-7.79536e-312
-1.76707e-311
-3.06284e-311
6.49398e-312
2.84789e-311
-1.5938e-311
-4.29303e-311
-3.68059e-311
-4.83872e-311
-1.99829e-311
-3.31332e-311
-2.60489e-311
-5.61859e-311
-7.41688e-311
-9.84963e-311
-8.73378e-311
-6.28872e-311
-5.05656e-311
-4.19804e-311
-1.44318e-311
-2.01431e-311
-4.65547e-312
2.95406e-311
4.28073e-311
7.13547e-311
9.82079e-311
5.21824e-311
3.55215e-311
1.2969e-311
4.26911e-311
8.11909e-311
1.01574e-310
7.35748e-311
1.06776e-310
1.10417e-310
9.36246e-311
6.6122e-311
6.51308e-311
9.42902e-311
6.98615e-311
4.41147e-311
2.12222e-311
4.9773e-312
4.34964e-311
-9.15077e-312
-5.97126e-311
-7.59273e-311
-4.67108e-311
-4.65e-311
3.4269e-312
2.48041e-312
6.77104e-312
-5.93173e-311
-9.54655e-311
-9.8575e-311
-5.20687e-311
-8.32071e-311
-2.85745e-310
-2.11961e-310
-2.29176e-310
-2.34396e-310
-2.12326e-310
-2.06154e-310
-2.1583e-310
-1.95683e-310
-1.67119e-310
-1.22715e-310
-1.04765e-310
-9.56004e-311
-8.05683e-311
-8.93187e-311
-1.21815e-310
-1.15056e-310
-9.45305e-311
-6.30405e-311
-4.96507e-311
-2.7479e-311
-2.03827e-311
-4.83759e-311
-1.62123e-311
-4.55365e-311
-3.97781e-311
-2.72426e-311
3.44649e-311
2.92534e-311
-7.3276e-312
-1.75911e-311
-1.56357e-311
-2.45924e-311
5.49245e-312
9.21623e-312
2.05163e-312
-1.31578e-311
-7.86466e-311
-1.04728e-310
-1.05646e-310
-7.12372e-311
-5.31464e-311
-3.06804e-311
-4.41182e-311
-4.21584e-311
-2.28969e-311
1.46103e-311
4.24989e-311
7.88217e-311
1.12889e-310
7.20462e-311
4.84908e-311
3.99558e-311
4.48686e-311
5.38173e-311
5.41346e-311
7.68228e-311
8.82607e-311
1.35173e-310
1.16341e-310
1.10212e-310
1.03627e-310
1.04763e-310
3.5019e-311
-2.39031e-312
3.10704e-311
6.89238e-312
4.02495e-311
-3.54089e-312
-3.82603e-311
-9.98721e-311
-8.17762e-311
-8.13814e-311
-3.91044e-311
-2.20993e-311
-4.49032e-311
-1.39319e-310
-1.72333e-310
-1.98533e-310
-1.79819e-310
-1.04161e-310
-1.44024e-310
-1.34883e-310
-2.03577e-310
-2.15282e-310
-1.75327e-310
-1.9544e-310
-1.60616e-310
-1.51135e-310
-1.12992e-310
-9.65523e-311
-1.26581e-310
-1.01864e-310
-4.45325e-311
-9.52121e-311
-1.20781e-310
-1.26091e-310
-1.02113e-310
-8.09051e-311
-4.95813e-311
-2.96831e-311
-1.7463e-311
-3.29739e-311
-2.53278e-311
-3.66254e-311
-3.99653e-311
-5.10794e-311
-1.56292e-311
-1.12205e-311
-1.12375e-311
1.90234e-312
1.53087e-311
2.4172e-311
3.40167e-311
1.72423e-311
2.3748e-311
-1.54761e-311
-7.71291e-311
-7.99196e-311
-9.85492e-311
-9.68892e-311
-8.14548e-311
-5.26238e-311
-2.83554e-311
-3.9729e-311
1.84333e-311
4.16073e-311
1.03912e-310
1.01872e-310
1.13101e-310
7.87106e-311
6.53476e-311
2.16723e-311
2.35643e-311
3.92172e-311
6.11282e-311
5.11482e-311
7.40306e-311
1.14763e-310
1.43525e-310
1.09877e-310
6.94728e-311
4.70968e-311
5.47379e-311
1.41422e-311
1.90961e-311
-1.40699e-311
7.66543e-312
2.56885e-312
2.03132e-311
-6.55261e-311
-1.02254e-310
-1.10812e-310
-9.90794e-311
-1.26212e-310
-1.68491e-310
-1.63362e-310
-2.32958e-310
-2.45558e-310
-2.73653e-310
-2.99944e-310
-1.44646e-310
-1.18133e-310
-1.75649e-310
-1.85198e-310
-1.46761e-310
-1.69659e-310
-1.91725e-310
-1.52694e-310
-1.19788e-310
-8.30613e-311
-1.49897e-310
-1.07945e-310
-4.09829e-311
-6.96095e-311
-5.1025e-311
-7.2006e-311
-7.8507e-311
-7.47733e-311
-6.27832e-311
-1.00304e-310
-9.26394e-311
-6.0088e-311
-2.14678e-311
1.76586e-313
-8.71489e-314
-3.82717e-311
-2.16552e-311
-4.96743e-311
-5.2451e-311
-4.77154e-311
-3.44255e-311
-3.93901e-312
3.61615e-311
8.14425e-312
1.39592e-311
-2.06774e-311
-5.41435e-311
-5.01675e-311
-5.85791e-311
-6.47431e-311
-4.75662e-311
-6.14786e-311
-5.99427e-311
-3.39347e-311
-9.38795e-313
2.37227e-311
1.13663e-310
1.22903e-310
1.10838e-310
1.15347e-310
4.21004e-311
2.28461e-311
3.20721e-311
2.56252e-311
6.26624e-311
6.16452e-311
5.01435e-311
5.70182e-311
7.44267e-311
5.8925e-311
5.63844e-311
5.46272e-311
3.22373e-311
1.3004e-312
-3.23489e-311
-6.29172e-311
-4.7973e-311
-2.12612e-311
9.48028e-312
-5.58491e-311
-9.12099e-311
-9.24013e-311
-1.13506e-310
-9.7409e-311
-1.3134e-310
-1.44318e-310
-1.61891e-310
-1.7779e-310
-1.97327e-310
-2.04254e-310
-1.45604e-310
-1.3108e-310
-1.23098e-310
-1.64649e-310
-1.90776e-310
-2.36046e-310
-1.95679e-310
-1.58222e-310
-1.56888e-310
-1.71442e-310
-1.63245e-310
-1.07491e-310
-1.05355e-310
-1.1563e-310
-8.3997e-311
-6.42625e-311
-6.97645e-311
-5.92285e-311
-7.77774e-311
-9.77348e-311
-6.29667e-311
-5.7155e-311
-2.15586e-311
-1.77506e-311
-9.62324e-312
-1.49762e-312
2.68997e-312
-1.54717e-311
-6.07379e-311
-4.5612e-311
-4.66519e-311
-3.47485e-311
7.31185e-313
2.18492e-312
-2.72452e-312
-4.29024e-311
-6.25901e-311
-5.91061e-311
-5.14007e-311
-6.02859e-311
-6.46799e-311
-6.49091e-311
-8.45006e-311
-6.43393e-311
-3.22216e-311
5.07008e-311
1.09074e-310
1.08142e-310
1.17855e-310
1.04709e-310
5.04752e-311
5.16765e-312
3.95786e-311
4.6078e-311
8.26385e-311
1.07258e-310
4.44888e-311
3.29469e-311
2.5345e-311
3.63334e-311
4.0342e-311
-6.87435e-313
1.60791e-311
-2.76691e-311
-2.85354e-311
-5.18744e-311
-1.43592e-311
-4.35235e-312
-1.92474e-311
-2.01472e-311
-5.57192e-311
-9.35162e-311
-1.40242e-310
-1.56697e-310
-1.41328e-310
-1.65803e-310
-1.54409e-310
-1.65521e-310
-1.23711e-310
-7.51099e-311
-2.55061e-311
-6.6032e-311
-7.48883e-311
-6.99887e-311
-1.02936e-310
-1.52244e-310
-1.45098e-310
-1.66895e-310
-1.59139e-310
-1.51923e-310
-1.94678e-310
-1.61433e-310
-1.54491e-310
-1.42987e-310
-9.80055e-311
-7.58657e-311
-5.11287e-311
-5.92974e-311
-6.03401e-311
-8.79007e-311
-4.47844e-311
-1.57745e-311
5.89381e-312
-2.47977e-311
-1.58694e-311
-5.76448e-311
-4.23585e-311
-2.51596e-311
-6.50585e-311
-7.90333e-311
-7.18244e-311
-1.72158e-311
2.68091e-311
3.52702e-311
1.25939e-311
-1.94171e-311
-3.89831e-311
-5.69582e-311
-5.12329e-311
-4.33302e-311
-5.3575e-311
-4.34388e-311
-6.64492e-311
-4.00245e-311
-2.71224e-311
3.00421e-311
7.7911e-311
9.18553e-311
8.95975e-311
7.26833e-311
3.66527e-311
1.79356e-311
4.92802e-311
4.14595e-311
4.55643e-311
2.78444e-311
2.50288e-312
-8.23209e-312
7.9035e-312
3.82848e-311
2.46237e-311
-3.41444e-311
4.62505e-312
-5.50787e-311
-5.6721e-311
-3.03024e-311
-1.32155e-311
9.15887e-312
-4.70163e-311
-6.90148e-311
-7.69529e-311
-9.21929e-311
-1.28957e-310
-1.38234e-310
-1.7182e-310
-1.71267e-310
-1.86946e-310
-1.96425e-310
-1.92676e-310
-1.3094e-310
1.26961e-311
3.55037e-311
1.10248e-311
-2.97226e-311
-6.8714e-311
-7.80368e-311
-8.54951e-311
-7.91437e-311
-8.88711e-311
-9.45682e-311
-1.48347e-310
-1.79877e-310
-1.33799e-310
-1.34144e-310
-1.03637e-310
-9.34602e-311
-7.80483e-311
-9.58423e-311
-7.10629e-311
-7.17669e-311
-4.44859e-311
-3.28135e-311
-3.57615e-311
-5.42662e-311
-1.86412e-311
-6.12153e-311
-5.35217e-311
-2.69289e-311
-5.67811e-311
-6.60896e-311
-2.75884e-311
-1.79994e-311
3.20803e-311
2.89034e-311
2.47927e-311
-1.13974e-311
-6.41808e-311
-7.40589e-311
-5.15633e-311
-3.00126e-311
-3.39151e-311
-6.5507e-311
-6.85542e-311
-5.06761e-311
-4.5439e-311
3.51666e-311
7.93388e-311
8.08493e-311
1.03254e-310
8.48618e-311
6.50079e-311
4.23348e-311
4.4872e-311
7.36011e-311
6.46314e-311
4.06235e-311
-8.15605e-312
-3.35322e-312
2.83398e-311
4.29509e-311
-1.45635e-311
-3.6079e-311
1.09563e-311
-4.70085e-311
-7.64749e-311
-5.48045e-311
-6.87712e-311
-4.52468e-311
-8.34343e-311
-7.18139e-311
-8.51214e-311
-8.55076e-311
-1.62201e-310
-1.68208e-310
-1.26322e-310
-1.90323e-310
-2.37678e-310
-3.12821e-310
-3.12053e-310
-3.07405e-310
-1.45447e-310
-1.05523e-310
-1.13509e-310
-7.10026e-311
-4.92579e-311
-6.09874e-311
-7.5792e-311
-1.03462e-310
-1.23278e-310
-9.78696e-311
-1.09188e-310
-1.21828e-310
-8.01787e-311
-1.22648e-310
-1.14965e-310
-1.31789e-310
-1.29722e-310
-1.46473e-310
-8.27147e-311
-6.05295e-311
-6.54258e-311
-6.3782e-311
-6.17455e-311
-5.44266e-311
-2.1505e-311
-4.25744e-311
-4.43733e-311
-1.49766e-311
-2.59255e-311
-1.85233e-311
2.45242e-311
1.37234e-311
2.98596e-311
3.34546e-311
3.20886e-311
-6.00014e-312
-7.3365e-311
-8.9295e-311
-7.05586e-311
-6.04489e-311
-3.95588e-311
-5.25293e-311
-3.30332e-311
-2.57979e-311
-3.55614e-311
2.12914e-311
5.69488e-311
6.44771e-311
1.03603e-310
1.01228e-310
4.39468e-311
3.33848e-311
5.02929e-311
5.9441e-311
6.83053e-311
4.86452e-311
-1.21157e-311
-2.75635e-311
-4.75574e-312
1.82022e-311
7.38557e-312
-6.62794e-312
2.52461e-311
-2.68714e-311
-3.6991e-311
-3.02229e-311
-5.00513e-311
-4.46571e-311
-8.50132e-311
-1.32234e-310
-1.22982e-310
-1.37726e-310
-1.64292e-310
-2.33885e-310
-2.11667e-310
-1.99989e-310
-1.29832e-310
-1.59099e-310
-2.17215e-310
-2.12826e-310
-1.8817e-310
-1.73434e-310
-7.32353e-311
-1.04413e-310
-6.3003e-311
-8.43274e-311
-1.43977e-310
-1.33421e-310
-1.28377e-310
-1.03591e-310
-1.12189e-310
-1.00264e-310
-1.01963e-310
-1.68389e-310
-1.56653e-310
-1.39898e-310
-1.32598e-310
-1.35587e-310
-1.0431e-310
-9.36423e-311
-6.98503e-311
-5.7854e-311
-3.64795e-311
-2.53421e-311
-3.5351e-311
-3.30846e-311
-2.58055e-311
-3.26803e-311
-2.90317e-311
-3.9733e-312
1.92075e-311
2.93075e-311
4.35802e-311
3.06877e-311
2.31514e-311
4.2765e-312
-4.55769e-311
-5.46359e-311
-4.956e-311
-7.15854e-311
-7.52715e-311
-5.84761e-311
-4.39656e-311
-1.27585e-311
1.16662e-311
3.1252e-312
5.54658e-311
7.20836e-311
9.76103e-311
9.87876e-311
4.14353e-311
4.44066e-311
6.26201e-311
3.34044e-311
6.23657e-312
1.19206e-311
-3.23472e-312
-2.86467e-311
-1.33583e-311
5.8181e-312
-1.94891e-312
-6.10691e-312
2.41495e-311
2.88669e-311
2.68524e-311
-1.28625e-311
-3.70557e-311
-1.77371e-311
-5.17575e-311
-9.08764e-311
-1.27727e-310
-1.39807e-310
-2.1953e-310
-2.70003e-310
-2.63842e-310
-2.22466e-310
-1.42819e-310
-1.86841e-310
-1.84159e-310
-1.69426e-310
-1.14244e-310
-1.0421e-310
-7.45013e-311
-5.04049e-311
-9.2326e-311
-7.49573e-311
-1.36442e-310
-1.48849e-310
-8.32988e-311
-7.09202e-311
-6.15455e-311
-3.47163e-311
-2.89984e-311
-6.85571e-311
-1.31706e-310
-1.46263e-310
-1.0755e-310
-1.17698e-310
-1.48239e-310
-1.1793e-310
-8.37339e-311
-5.79886e-311
-2.41485e-311
-2.39986e-311
-5.07093e-311
-6.4375e-311
-2.45392e-311
-7.32359e-312
-1.08179e-311
2.72075e-312
2.78977e-311
2.23046e-311
2.50629e-311
1.66133e-311
4.32411e-311
9.92784e-312
-4.431e-311
-6.67612e-311
-6.85916e-311
-7.99489e-311
-7.02504e-311
-2.31417e-311
-1.9236e-311
6.41251e-312
1.48532e-311
2.75048e-311
1.05764e-311
4.37275e-311
6.90131e-311
7.67383e-311
6.16061e-311
5.24901e-311
4.11394e-311
9.83373e-312
3.90674e-312
6.23622e-312
1.69709e-311
-7.99092e-314
2.18472e-312
2.77439e-311
1.00267e-311
4.71734e-311
4.48537e-311
2.64998e-312
-1.30315e-311
-3.6937e-311
-4.8165e-311
-5.34742e-311
-5.97698e-311
-1.28525e-310
-1.65144e-310
-2.3771e-310
-3.00117e-310
-3.18322e-310
-2.66166e-310
-2.56901e-310
-1.88618e-310
-1.79656e-310
-1.55615e-310
-1.89295e-310
-3.45124e-311
-2.92474e-311
-7.00482e-311
-1.16461e-310
-9.44133e-311
-9.13721e-311
-9.31967e-311
-8.02375e-311
-3.89313e-311
-2.48096e-311
-6.9265e-311
-3.985e-311
-4.08442e-311
-7.77146e-311
-1.7554e-310
-1.52014e-310
-1.41008e-310
-1.15548e-310
-1.16779e-310
-6.51368e-311
-4.98145e-311
-5.81625e-311
-8.78908e-312
-4.67562e-311
-8.96486e-311
-6.37004e-311
-4.58318e-311
5.58769e-312
2.15552e-311
3.30759e-311
3.4727e-311
3.75529e-311
6.43858e-311
4.10515e-312
2.60769e-311
-9.3411e-312
-6.84395e-311
-4.11129e-311
-4.85956e-311
-7.24654e-311
-7.5422e-311
-2.48729e-311
-4.78904e-311
-5.47739e-311
-1.9301e-311
3.86585e-312
-9.82327e-312
2.74268e-311
7.21313e-311
6.68945e-311
5.13991e-311
4.21059e-311
5.8632e-311
7.72346e-311
3.4187e-311
3.73694e-311
5.1315e-311
2.62464e-311
3.61015e-311
2.1261e-311
1.20807e-311
-3.23729e-313
1.18157e-311
1.34096e-311
-1.13665e-311
-1.07926e-311
7.43912e-312
-4.06341e-311
-4.62243e-311
-1.23154e-310
-1.71054e-310
-2.47186e-310
-2.34767e-310
-2.37347e-310
-2.58787e-310
-2.80971e-310
-2.12965e-310
-2.53696e-310
-2.34819e-310
-2.3477e-310
-3.47371e-310
-2.86309e-310
-2.10772e-310
-1.32342e-310
-1.16401e-310
-1.194e-310
-1.05527e-310
-1.02001e-310
-6.01326e-311
-5.00949e-311
-6.93277e-311
-6.64845e-311
-6.84456e-311
-7.9949e-311
-1.41422e-310
-1.63075e-310
-1.24365e-310
-1.1913e-310
-8.91302e-311
-6.32877e-311
-2.2248e-311
-2.34551e-311
-5.70151e-311
-8.5348e-311
-9.49238e-311
-5.94463e-311
-4.367e-311
1.92102e-312
1.1425e-311
4.53405e-311
5.42376e-311
7.36231e-311
8.84945e-311
3.439e-311
1.63149e-311
-6.82829e-312
-3.08283e-311
-3.8111e-311
-4.7169e-311
-6.10697e-311
-8.23477e-311
-6.85283e-311
-8.39694e-311
-5.19924e-311
-4.58313e-311
-4.22239e-311
-1.08605e-311
-2.15088e-311
2.26674e-311
2.66899e-312
6.03008e-311
9.28277e-312
2.76837e-311
7.20372e-311
4.44854e-311
3.09508e-311
6.70823e-311
6.46317e-311
3.72391e-311
2.86054e-311
4.79055e-312
-1.06178e-311
-1.7092e-311
-1.30963e-311
-1.51202e-311
1.50899e-311
-7.81516e-312
-6.07684e-311
-1.02997e-310
-1.14592e-310
-1.44754e-310
-1.52744e-310
-1.70076e-310
-2.19028e-310
-2.38981e-310
-2.65475e-310
-2.43199e-310
-1.67438e-310
-1.48954e-310
-1.66378e-310
-4.00712e-310
-3.38395e-310
-3.07364e-310
-2.3755e-310
-1.60705e-310
-9.73207e-311
-1.04309e-310
-6.53767e-311
-4.83234e-311
-2.03312e-311
-4.49113e-312
-2.02723e-311
9.35055e-312
-5.68201e-311
-9.25839e-311
-1.64064e-310