/*--------------------------------*- C++ -*----------------------------------*\
  =========                 |
  \\      /  F ield         | OpenFOAM: The Open Source CFD Toolbox
   \\    /   O peration     | Website:  https://openfoam.org
    \\  /    A nd           | Version:  11
     \\/     M anipulation  |
\*---------------------------------------------------------------------------*/
FoamFile
{
    format      ascii;
    class       volScalarField;
    location    "100";
    object      C;
}
// * * * * * * * * * * * * * * * * * * * * * * * * * * * * * * * * * * * * * //

dimensions      [0 0 0 1 0 0 0];

internalField   nonuniform List<scalar> 
440320
(
-5.87104e-313
-8.72263e-312
5.95457e-312
1.90195e-311
-3.12446e-311
2.91587e-312
-2.01581e-311
1.77926e-311
5.14209e-311
5.45348e-311
9.98641e-311
6.76765e-311
1.18488e-310
5.7548e-311
3.9905e-311
2.17757e-311
5.71331e-311
5.0592e-311
6.51094e-311
3.0969e-311
-1.80326e-311
-4.80926e-311
-1.55512e-311
3.35152e-311
7.57253e-311
2.02886e-311
-8.7612e-311
-4.65801e-310
-4.84574e-310
-4.20849e-311
3.83514e-311
1.56155e-311
-2.39744e-311
-2.38567e-311
6.90814e-312
-5.97989e-311
-5.53598e-311
-9.83796e-311
-7.87786e-311
-9.47674e-311
-9.87665e-311
-5.40035e-313
-2.29589e-312
3.98709e-311
9.21105e-311
2.0985e-311
-2.60279e-311
-1.85935e-310
-5.68718e-310
-2.12304e-310
-8.12432e-311
-1.85885e-311
1.81783e-311
-1.97528e-311
4.74521e-311
-6.74852e-311
-1.61913e-310
-5.69822e-310
-6.46404e-310
-4.95895e-310
-4.5472e-311
-2.67042e-311
2.24957e-312
3.95056e-311
2.08061e-311
-5.04487e-313
2.5235e-311
1.16488e-310
7.93439e-311
3.41159e-311
-7.44031e-311
-7.11722e-311
-1.23475e-310
-3.59116e-310
-3.15183e-311
2.99682e-311
-9.5369e-312
-3.66479e-312
-2.06477e-312
-3.04854e-311
-2.38176e-312
5.89335e-311
-7.14316e-312
-4.749e-310
-6.23006e-310
-3.42686e-310
-4.86457e-310
-1.55706e-310
-3.30823e-311
3.74102e-310
1.62612e-310
-2.72229e-310
-3.18147e-311
9.23936e-311
8.46664e-311
7.10071e-311
4.12927e-310
-1.13945e-310
4.42129e-310
1.39666e-310
5.22495e-311
1.62916e-311
3.13156e-311
1.26195e-310
4.98174e-310
1.66694e-310
-1.27307e-310
-4.54081e-310
-4.74006e-310
-1.43958e-310
3.54306e-314
6.55186e-311
4.30267e-311
9.03911e-311
-5.45684e-311
-6.38709e-310
-6.79476e-310
-3.57666e-310
-1.88837e-310
-1.47487e-310
-1.24618e-310
1.6284e-311
1.2273e-310
1.57e-310
5.33704e-310
1.65006e-310
2.24756e-310
-4.51843e-310
-1.13598e-309
-9.88572e-310
-7.34013e-310
-1.26967e-310
6.11196e-311
7.85064e-311
1.12738e-310
-1.30441e-310
-2.83151e-310
-5.29046e-310
-6.38772e-310
-4.45631e-310
-7.41408e-311
-5.68631e-311
-2.43616e-310
2.20718e-310
5.57907e-310
2.24209e-310
3.27529e-310
6.53526e-310
5.92715e-310
1.44017e-310
-1.10181e-310
-2.82072e-310
-6.005e-310
-2.99899e-310
-1.47686e-311
4.08098e-311
4.3037e-311
7.33325e-312
6.22008e-311
1.60823e-310
4.27916e-310
7.74839e-310
2.80598e-310
-4.55717e-310
-4.43362e-310
-2.61377e-313
1.04779e-310
-4.77618e-311
2.66319e-311
2.81789e-310
3.03243e-310
3.20543e-310
8.25726e-311
8.49789e-311
1.32195e-310
3.19855e-310
8.4112e-310
3.5402e-310
5.10319e-310
3.55514e-310
2.75604e-310
5.62915e-310
2.15699e-310
-1.05667e-310
5.9953e-310
2.57739e-310
-6.35534e-311
-4.34611e-310
-8.46824e-310
-2.07677e-310
8.55259e-311
5.97308e-310
2.07252e-310
5.23401e-310
4.17568e-310
-3.44892e-310
-5.13526e-310
-4.77605e-310
-4.93825e-310
-4.4935e-310
-6.91097e-310
-9.51602e-311
2.16848e-310
3.42307e-310
1.01059e-309
5.57535e-310
-4.97909e-311
-5.72814e-310
-1.03035e-309
-1.0575e-309
-9.48421e-310
2.57761e-310
3.35951e-310
7.72343e-310
7.89119e-310
4.95922e-310
2.17695e-310
-8.37233e-311
-4.45297e-310
-2.36034e-310
-4.30876e-311
7.73398e-311
1.21477e-310
3.93418e-310
4.83772e-310
1.57821e-310
3.87746e-310
2.96349e-310
6.13714e-310
6.2029e-310
2.63504e-310
4.13467e-311
-1.93919e-310
-1.95785e-310
2.91006e-310
6.047e-310
3.4923e-310
6.24728e-311
6.757e-310
1.51521e-309
3.7614e-310
-4.43421e-311
1.07948e-309
6.90514e-310
1.5072e-310
1.71539e-310
2.06424e-310
7.50142e-311
1.90697e-310
2.91066e-310
4.22902e-310
7.0855e-310
1.2816e-310
7.75397e-311
-1.48041e-310
2.63557e-310
1.00908e-309
7.83081e-310
8.45569e-310
9.8119e-310
5.65045e-310
3.80534e-310
8.39563e-310
4.6718e-310
5.83033e-310
4.09985e-310
5.7227e-310
3.60775e-310
-3.34442e-310
-1.19241e-310
1.66778e-310
5.22398e-310
3.1807e-311
4.43723e-310
3.39661e-310
-1.09332e-310
-1.21937e-312
-6.96767e-310
-6.46601e-310
-6.30522e-310
-1.18729e-309
-7.81681e-310
1.09482e-310
2.53232e-310
6.17021e-310
3.20278e-310
-5.99963e-310
-7.81482e-310
-1.11057e-309
-1.06646e-309
-3.28278e-310
-1.64153e-311
6.30457e-310
9.18501e-310
8.95383e-310
5.92516e-310
1.83348e-310
-5.28544e-311
-3.00884e-310
-4.2925e-310
4.76489e-311
2.05167e-310
3.29149e-310
4.49242e-310
5.27933e-310
4.98346e-310
9.32784e-310
9.0694e-310
6.48081e-310
5.96803e-310
2.74929e-310
1.28931e-310
-4.11007e-311
-6.16666e-311
1.21319e-310
5.90517e-310
1.1392e-309
7.83846e-310
1.4636e-309
1.60176e-309
1.03291e-309
1.08141e-309
1.42582e-309
6.55475e-310
2.05361e-310
1.97016e-311
5.50332e-310
8.21512e-311
5.83989e-310
2.28818e-310
1.91526e-310
6.60343e-310
9.0972e-310
5.32418e-310
3.72555e-310
5.33898e-310
9.24809e-310
1.00611e-309
1.30804e-309
1.13728e-309
8.7545e-310
7.78862e-310
8.40136e-310
7.05396e-310
7.13699e-310
6.59493e-310
6.24916e-310
6.62686e-311
-5.25151e-311
1.75401e-310
3.84127e-310
6.25257e-310
8.25958e-310
3.09662e-310
5.72834e-310
-3.59938e-310
-1.80149e-310
-1.00903e-310
-6.24395e-310
-7.48329e-310
-7.54644e-310
-7.32412e-310
-8.14439e-311
4.28065e-310
-2.93395e-311
-1.35949e-311
-5.79896e-310
-8.60916e-310
-1.33149e-309
-8.99101e-310
-7.37673e-311
5.65073e-310
1.0358e-309
1.0847e-309
1.43059e-309
1.03497e-309
2.56527e-310
-4.2305e-310
-5.56979e-311
9.96039e-311
2.127e-310
2.66912e-310
3.30388e-310
3.87528e-310
6.056e-310
4.48925e-310
3.58513e-310
6.04718e-310
1.72087e-310
9.65894e-311
6.32954e-310
4.40765e-310
2.60262e-310
1.81146e-310
6.4161e-310
9.63942e-310
6.70292e-310
1.45552e-309
2.34711e-309
2.17724e-309
7.63918e-311
1.56933e-310
2.07405e-310
-5.66835e-311
1.64618e-310
3.60097e-310
3.09405e-310
4.27088e-310
3.49231e-310
5.68318e-310
6.04793e-310
5.12114e-310
5.25001e-310
-2.33355e-312
1.86591e-310
3.87158e-310
8.40674e-310
1.00611e-309
9.13004e-310
1.1148e-309
1.07965e-309
1.01878e-309
6.97995e-310
9.14966e-310
9.48112e-310
9.5726e-310
8.25808e-310
5.29661e-310
3.17602e-310
1.09201e-310
5.7263e-310
6.77448e-310
4.19646e-310
4.25968e-310
-3.27895e-312
6.75349e-311
-3.3747e-310
-3.57728e-310
-3.6078e-310
-7.50991e-310
-9.42374e-310
-9.88066e-310
-7.23114e-310
-2.23169e-310
-3.37704e-310
-3.16087e-310
-4.03545e-310
-5.94625e-310
-1.11162e-309
-8.30412e-310
-1.2579e-310
2.00705e-310
1.13006e-309
1.17593e-309
1.08792e-309
8.35939e-310
4.1673e-310
-3.28728e-310
-2.55197e-310
1.06309e-310
-2.9907e-310
5.23604e-311
2.45713e-311
-2.05563e-310
-2.38532e-310
-3.62629e-310
-9.09349e-311
4.56606e-310
3.13451e-310
1.33321e-310
2.21596e-311
2.56143e-310
4.50729e-310
1.11632e-309
1.31507e-309
1.71573e-309
1.26186e-309
1.7888e-309
1.7103e-309
2.11747e-309
-5.4047e-310
-6.92673e-310
-1.44544e-309
-9.18681e-310
-3.70744e-310
-1.00558e-310
3.66692e-310
9.09261e-310
5.97876e-310
5.23676e-310
5.32664e-310
5.53807e-310
5.81168e-310
3.16539e-310
3.43936e-310
3.09394e-310
2.42881e-310
5.26198e-310
6.24649e-310
1.13997e-309
1.21588e-309
1.29909e-309
1.43271e-309
1.28457e-309
1.26489e-309
1.22231e-309
8.4615e-310
4.51335e-310
-1.94202e-310
-5.32718e-311
6.08385e-310
4.43883e-310
4.72742e-310
1.98137e-310
-4.90334e-311
-3.22186e-310
-7.20329e-310
-7.99747e-310
-7.46242e-310
-8.61048e-310
-6.84352e-310
-1.16088e-309
-6.88211e-310
-7.41552e-310
-7.3116e-310
-6.55436e-310
-1.43815e-310
-5.88685e-310
-1.07018e-309
-9.10081e-310
-5.47534e-311
3.38283e-310
1.03483e-309
1.12365e-309
7.72502e-310
2.70735e-310
1.47099e-310
1.65173e-310
1.99517e-310
3.30299e-310
-3.70949e-310
-1.04934e-310
2.48978e-310
-1.92916e-310
-1.44182e-310
-1.78349e-310
-3.71191e-311
3.35277e-310
1.69191e-310
-4.62078e-310
2.92077e-313
3.51541e-311
2.78208e-310
8.83345e-310
1.03925e-309
1.68115e-309
1.55231e-309
2.063e-309
2.40374e-309
3.1962e-309
9.64074e-310
-9.86759e-310
-1.02012e-309
-1.0155e-309
-8.25957e-310
2.62093e-310
9.80875e-310
9.78075e-310
1.39095e-309
9.27521e-310
4.52409e-310
7.31595e-310
7.49699e-310
3.38356e-310
5.21956e-310
4.81796e-310
3.3847e-310
4.4653e-311
-5.15108e-311
1.76823e-310
1.94633e-310
3.14218e-310
5.26468e-310
1.16073e-309
1.01545e-309
9.99883e-310
7.23807e-310
4.23424e-310
-8.71101e-311
-5.55018e-310
-2.47828e-310
1.63972e-310
4.50045e-310
2.84502e-312
-5.57145e-311
-8.77705e-311
-9.53193e-310
-1.15303e-309
-1.06177e-309
-1.31694e-309
-1.62197e-309
-1.55216e-309
-1.13981e-309
-7.73164e-310
-8.59531e-310
-9.02697e-310
-2.95585e-310
-8.12026e-310
-1.25821e-309
-9.37397e-310
2.78569e-310
3.83449e-310
2.97535e-310
4.38096e-310
1.08156e-309
7.65606e-310
2.86805e-310
-1.30527e-310
1.39728e-310
-2.82566e-310
-5.44362e-310
-2.09206e-310
-1.75871e-310
-1.85974e-310
4.87181e-310
1.89188e-310
-8.14288e-311
3.23686e-310
3.92364e-311
-2.54417e-310
1.77232e-310
2.41283e-310
2.23775e-310
8.75666e-310
1.54747e-309
9.72719e-310
9.206e-310
9.02753e-310
1.40223e-309
1.21211e-309
9.52371e-310
-2.62685e-310
-7.61036e-310
-9.10098e-310
-2.09916e-310
6.71614e-310
8.41089e-310
7.32413e-310
8.36375e-310
8.28345e-310
6.53071e-310
1.14372e-309
1.1168e-309
5.97449e-310
4.79534e-310
3.09297e-310
7.04957e-311
-1.32922e-310
2.74421e-311
1.79172e-310
1.41402e-310
-1.43063e-310
-2.36507e-312
8.77284e-310
7.95774e-310
1.07105e-309
5.53252e-310
1.62821e-310
3.61668e-310
-5.36947e-310
-2.25287e-310
5.31817e-311
2.05744e-310
7.85901e-312
3.62715e-310
1.91085e-310
-5.15835e-310
-1.24391e-309
-1.09304e-309
-1.51413e-309
-1.83295e-309
-1.41796e-309
-1.07258e-309
-8.37213e-310
-7.00958e-310
-1.04762e-309
-7.78003e-310
-9.60587e-310
-9.21319e-310
-8.68824e-310
-8.63132e-311
2.28169e-311
-2.26572e-310
5.33931e-311
1.0036e-309
4.07586e-310
2.08801e-310
2.53674e-310
3.19774e-310
-1.51732e-310
-3.43132e-310
1.93193e-310
4.10902e-310
-7.81323e-311
3.88516e-310
-5.67014e-311
-1.02936e-310
3.20449e-311
6.75617e-311
-4.41212e-310
-4.71844e-311
4.62403e-310
4.74983e-310
8.62851e-310
1.0488e-309
4.39537e-310
8.04455e-310
1.89764e-309
2.21875e-309
1.94078e-309
3.77789e-310
2.36231e-311
-9.27589e-310
-1.36034e-309
-9.73767e-310
1.3294e-310
2.32841e-310
5.26095e-310
9.12555e-310
1.18276e-309
6.71459e-310
1.16111e-309
1.56211e-309
1.09024e-309
8.89228e-310
6.22829e-310
2.87171e-310
6.09121e-311
1.23958e-311
3.04135e-310
2.44503e-310
-2.70064e-310
4.18661e-312
4.93089e-310
5.54773e-310
9.56208e-310
7.35269e-310
3.06547e-310
3.22566e-310
-4.30417e-310
-8.09113e-310
-4.24767e-310
6.7432e-311
-1.34313e-312
-1.91711e-311
3.29114e-310
-2.06526e-310
-8.72642e-310
-1.39318e-309
-9.68396e-310
-1.40493e-309
-1.26609e-309
-1.32723e-309
-1.15915e-309
-6.33104e-310
-9.30586e-310
-1.1718e-309
-1.3263e-309
-7.54625e-310
-2.88939e-310
3.1097e-310
2.20752e-310
3.81351e-310
3.97079e-310
3.01959e-310
2.41072e-310
4.6541e-310
3.33667e-310
2.1568e-310
-3.30587e-310
-7.86039e-311
1.24228e-310
3.87647e-310
3.14575e-310
4.45942e-310
-1.03692e-310
1.24659e-310
1.69377e-310
-1.23538e-310
-1.00127e-309
-1.07728e-310
2.60043e-310
5.00555e-310
3.50109e-310
6.70948e-310
4.59718e-310
9.96407e-310
1.49463e-309
7.84013e-310
-2.71426e-310
1.31156e-309
-1.95744e-310
-2.31875e-310
-1.26668e-309
-6.01706e-311
6.41344e-310
3.32492e-310
7.11757e-310
1.55566e-309
1.55397e-309
1.05983e-309
1.10825e-309
1.18893e-309
5.46895e-310
4.06873e-310
3.18133e-310
-1.99842e-310
1.93204e-310
2.59474e-310
5.71193e-310
1.47598e-310
-2.58088e-310
8.27563e-311
9.47928e-310
1.1462e-309
1.26602e-309
7.47234e-310
2.0672e-310
2.34385e-310
4.51089e-312
-1.7998e-310
-1.00994e-310
-2.18923e-310
-3.74759e-310
-1.83493e-310
1.11318e-310
-3.63883e-310
-5.55412e-310
-6.34862e-310
-4.81069e-310
-9.97879e-310
-8.71534e-310
-1.39039e-309
-1.43799e-309
-1.29144e-309
-1.12448e-309
-1.1995e-309
-1.28219e-309
-7.0102e-310
-4.46163e-310
2.64318e-310
-5.79859e-311
2.20416e-311
1.4256e-310
4.58225e-310
2.50414e-310
8.04633e-310
2.64591e-310
8.57676e-311
-1.42323e-310
5.70766e-310
6.91146e-310
9.60213e-310
9.79782e-310
8.54014e-310
-2.21836e-310
-1.27928e-310
-1.72824e-310
-3.52138e-312
-5.51864e-310
-1.26621e-310
4.04495e-311
-1.52694e-310
-5.96501e-310
-2.78569e-310
-1.72623e-310
6.98502e-310
6.82497e-310
6.3617e-310
3.02434e-310
1.52122e-309
-6.06766e-310
-6.95648e-310
-1.15891e-309
-4.85138e-310
5.29716e-310
5.72495e-310
3.7571e-310
9.28199e-310
1.47298e-309
6.84248e-310
7.69943e-310
1.16028e-309
7.75688e-310
2.04147e-310
-9.81037e-311
-1.62712e-310
7.30538e-311
1.89558e-310
5.74486e-310
2.56354e-310
-2.12389e-310
5.16592e-311
7.47401e-310
9.44717e-310
1.21294e-309
6.86781e-310
1.04581e-309
3.20761e-310
-1.7837e-310
-2.21731e-310
-2.47696e-310
-3.7963e-310
-5.3504e-310
-2.20895e-310
-2.25642e-310
-1.34498e-311
-2.96054e-310
4.95514e-311
-3.69555e-310
-1.91898e-310
-4.03525e-310
-1.27887e-309
-1.80947e-309
-1.22313e-309
-1.04673e-309
-1.00319e-309
-1.05917e-309
-4.41943e-310
-4.45106e-310
2.81368e-310
-6.31323e-310
-3.67638e-310
-4.56514e-312
3.24427e-310
5.42556e-310
5.65243e-310
5.34287e-310
4.60889e-310
6.28262e-311
6.78774e-310
9.88791e-310
1.22761e-309
7.63759e-310
5.60485e-310
-1.98792e-310
-7.50336e-311
-1.71164e-310
-4.29026e-310
-7.27679e-310
1.34698e-310
-1.70651e-311
-4.75286e-312
-1.49472e-310
1.24616e-310
4.36502e-310
-2.28128e-310
-1.26076e-309
-1.37108e-309
-1.58507e-309
1.4622e-309
7.32807e-310
-6.21661e-310
-9.95863e-310
8.3812e-311
-1.04779e-310
3.69369e-310
3.90345e-310
6.41695e-310
1.0902e-309
8.35054e-310
4.03023e-310
3.90521e-310
1.3281e-310
1.39536e-310
-5.36006e-311
1.25301e-310
-9.62041e-311
1.68949e-310
-1.91155e-311
2.81748e-310
1.52183e-310
1.05816e-310
5.19286e-310
5.61188e-310
1.00228e-309
9.30627e-310
1.45133e-309
6.10134e-310
4.06703e-311
-1.83145e-310
-6.45771e-310
-8.75268e-310
-6.37253e-310
-5.39178e-310
-4.05653e-310
-9.33534e-311
3.8542e-311
-3.01454e-310
-9.42331e-311
2.77304e-310
3.22477e-310
-5.26644e-310
-1.02355e-309
-7.97911e-310
-7.21044e-310
-6.71655e-310
-4.11059e-310
-3.78822e-310
-1.89627e-310
-3.05339e-310
-1.00639e-309
-4.21774e-310
1.98503e-310
1.76773e-310
7.91842e-310
6.96174e-310
6.69669e-310
9.61526e-310
6.01654e-310
8.48671e-310
8.45158e-310
6.43406e-310
2.1541e-310
5.49445e-310
-4.58248e-310
-4.48849e-310
-1.8468e-310
-5.03856e-310
-1.69871e-310
-3.38625e-310
-4.99752e-310
7.11655e-311
-2.9656e-310
2.74506e-310
1.21367e-309
3.68877e-310
-5.80355e-310
-4.7053e-310
-4.37764e-310
7.01165e-310
1.7319e-310
-2.56422e-310
-1.06493e-309
5.83172e-310
1.14023e-309
9.84578e-310
7.1791e-310
3.55773e-310
9.31492e-310
9.15025e-310
4.65414e-310
8.0465e-310
9.03985e-311
-2.51941e-310
-8.86089e-310
-2.75596e-310
-2.36274e-310
2.50661e-310
3.65014e-310
9.8489e-310
6.44996e-310
2.49014e-310
2.90165e-310
3.9224e-310
9.13147e-310
7.61288e-310
1.06241e-309
7.9316e-310
3.92938e-310
2.11804e-310
-4.38488e-311
-9.03449e-310
-8.48007e-310
-2.22844e-310
1.48992e-310
9.43341e-311
2.71447e-310
-5.23983e-310
-4.79641e-310
3.76119e-310
5.51444e-310
-2.82751e-310
-9.92464e-310
-5.75586e-310
-4.25245e-310
-5.97383e-310
1.05675e-310
-8.03956e-311
-3.16283e-310
-5.46964e-310
-6.0066e-310
-1.88862e-310
4.51835e-311
-1.61839e-310
3.38542e-310
9.40128e-310
8.7208e-310
8.52816e-310
6.12545e-310
6.68205e-310
5.67465e-310
2.14591e-310
1.69127e-310
3.22519e-310
-1.59653e-310
-6.65335e-310
-5.67805e-310
-3.85909e-311
-9.83698e-311
-8.05651e-310
-8.32974e-310
4.26636e-310
6.0977e-310
1.55757e-310
1.67745e-310
5.23194e-310
4.18732e-310
4.82592e-310
1.62377e-309
1.54146e-309
2.55966e-310
-4.86551e-310
-9.73163e-310
-1.08296e-309
1.13345e-310
1.16053e-309
5.06514e-310
2.46122e-310
3.9915e-310
8.8564e-311
2.82604e-310
2.56959e-310
1.28029e-310
1.91092e-311
-5.50493e-310
-4.90377e-310
2.39331e-310
-2.14253e-310
1.54379e-310
1.06793e-309
1.34996e-309
7.99981e-310
6.12184e-310
5.93458e-310
6.68203e-310
8.86464e-310
9.69538e-310
1.02282e-309
4.79994e-310
2.88161e-310
-1.2009e-310
-8.21856e-310
-3.9594e-310
-4.57376e-311
-2.2654e-311
5.89259e-311
3.40135e-310
-4.64807e-310
-3.66498e-310
1.77117e-310
3.82105e-310
-2.55159e-310
-9.14713e-310
-3.03245e-310
-2.50139e-310
-6.77518e-310
2.00243e-310
9.20957e-311
-4.19283e-310
-1.05696e-309
-6.75183e-310
-4.34752e-310
-2.95101e-310
-4.47388e-310
-1.16468e-310
4.26553e-310
8.98262e-310
7.74176e-310
6.40598e-310
1.11342e-309
6.63676e-310
-1.06524e-310
1.68111e-310
-1.02883e-311
-3.40438e-310
-9.16488e-310
-9.74237e-310
-3.95599e-310
-1.94512e-311
-8.22143e-310
2.94687e-311
3.67008e-310
1.39866e-310
4.88394e-310
1.06208e-309
2.05005e-309
1.77266e-309
1.84974e-309
1.62297e-309
9.71569e-310
-1.54251e-311
-4.40309e-311
-4.21015e-311
-7.90235e-310
-6.02456e-310
4.34691e-310
5.02986e-310
9.4237e-311
8.24078e-310
-3.9497e-311
2.78687e-310
4.86327e-310
2.14064e-310
1.80303e-310
-2.91352e-310
-5.58912e-310
3.00143e-310
-3.03082e-310
2.67158e-311
3.71522e-310
8.67141e-310
6.51531e-310
6.10904e-310
5.8855e-310
6.87874e-310
7.08488e-310
9.54104e-310
9.19658e-310
3.17411e-310
1.42355e-310
-5.09233e-310
-4.83759e-310
7.61179e-311
7.20011e-310
5.7347e-310
-4.58863e-311
-1.05592e-310
-3.86282e-310
-5.79376e-310
2.13562e-310
-2.98155e-311
-2.0792e-310
-4.85053e-310
-2.3357e-310
-1.25741e-310
-3.95202e-311
-2.12054e-310
-5.59546e-312
-5.52263e-310
-1.20275e-309
-4.03895e-310
-3.93502e-310
-7.84851e-310
-1.97919e-310
1.16115e-310
4.62113e-310
1.04184e-309
6.75052e-310
5.85104e-310
5.03496e-310
4.46074e-310
2.28361e-310
1.20685e-310
-6.25061e-310
-8.04927e-310
-7.70484e-310
-9.38998e-310
-1.31893e-310
-4.89109e-310
-6.44165e-310
2.63248e-310
5.78292e-310
9.04564e-310
8.4736e-310
5.22109e-310
1.44703e-309
1.38637e-309
2.32496e-309
3.13076e-309
9.18415e-310
4.03003e-310
1.22624e-309
6.18663e-310
2.14918e-312
-1.76121e-310
3.06893e-310
-7.11976e-311
-2.86864e-311
9.38052e-310
7.16239e-310
7.39031e-310
5.0029e-310
2.45435e-310
-1.79069e-310
-4.6619e-310
-8.41951e-310
-2.59266e-310
-3.30997e-310
-9.43364e-311
-1.0394e-310
2.22095e-310
7.63213e-310
6.01957e-310
7.18199e-310
4.30927e-310
6.56431e-310
9.43592e-310
1.18036e-309
5.64444e-310
2.11774e-310
-1.79326e-310
-7.20073e-310
-4.05815e-310
5.31544e-310
7.33762e-310
4.24217e-310
-8.17501e-311
-2.90592e-310
-8.90115e-310
-1.20016e-310
-6.37456e-311
-6.89888e-310
-1.01583e-309
-1.79681e-310
1.08185e-310
3.00887e-310
-1.19571e-311
4.47595e-311
-6.212e-310
-6.68457e-310
-2.55875e-310
-5.01973e-310
-7.14786e-310
7.76545e-311
3.32593e-310
2.09685e-310
8.15995e-310
8.40682e-310
5.27855e-310
-2.68876e-310
-6.10771e-311
6.14637e-312
-3.38264e-310
-2.49216e-310
-5.31909e-310
-7.33766e-310
-1.0101e-309
-2.48391e-310
-7.79008e-310
-5.79369e-310
-9.19099e-311
6.44194e-310
3.22995e-310
3.57218e-311
8.1607e-310
1.75481e-309
1.53133e-309
2.81315e-309
3.04616e-309
2.63836e-309
2.36299e-309
1.29597e-309
6.27774e-310
4.89931e-311
-3.30243e-310
3.09147e-310
6.15641e-310
5.3445e-310
1.15836e-309
1.34118e-309
1.1751e-309
4.77797e-310
1.91655e-310
-8.07968e-311
-6.79732e-310
-1.10107e-309
-3.66141e-310
-5.10706e-310
-3.44344e-310
-3.00886e-310
2.41227e-310
8.96199e-310
6.42409e-310
5.30926e-310
-2.03359e-311
3.29618e-310
1.04419e-309
1.43807e-309
9.30222e-310
4.58617e-310
-3.78732e-310
-5.27065e-310
-2.984e-310
4.24772e-310
5.60012e-310
1.97935e-310
-1.65876e-311
-4.19454e-310
-6.57962e-310
2.04959e-311
-6.22279e-312
-6.44462e-310
-9.78574e-310
-2.74097e-310
-1.37503e-310
6.82469e-311
3.03124e-310
-4.70485e-310
-5.38189e-310
-4.37169e-310
-4.7438e-311
-1.68874e-310
-6.10318e-310
-1.15425e-310
-2.26658e-310
-1.27362e-310
8.28037e-311
3.85911e-310
2.60329e-310
1.59737e-310
1.87565e-310
-1.96118e-311
-1.8331e-310
-8.73134e-310
-7.28032e-310
-4.98949e-310
-1.02208e-309
-6.50956e-310
-8.76238e-310
-3.95967e-310
1.51358e-310
-2.91233e-310
-8.25708e-310
-8.44186e-310
-2.42816e-310
7.74616e-310
1.31211e-309
7.99459e-310
6.7871e-311
3.48517e-309
2.28319e-309
1.32943e-309
6.0596e-310
-5.03949e-310
-8.79751e-310
1.42678e-310
4.15873e-310
1.97788e-310
8.83782e-310
1.34061e-309
7.92059e-310
2.16625e-310
-3.75095e-310
-1.89793e-310
-8.27908e-310
-5.538e-310
-4.91627e-310
-3.28146e-310
-1.34342e-310
-1.10137e-310
1.22161e-311
8.90928e-310
6.35209e-310
4.10656e-310
1.1014e-311
6.57948e-310
8.24974e-310
9.66753e-310
8.45318e-310
4.94217e-310
1.99258e-310
-2.86816e-310
-1.92908e-310
3.72302e-310
1.47274e-310
3.84524e-310
1.98928e-310
-2.52636e-310
-8.24815e-311
6.59608e-311
1.89185e-310
-4.41087e-310
-2.6986e-310
-2.17046e-310
-1.32119e-310
3.79793e-310
3.80402e-310
-2.23337e-310
-1.70653e-310
2.61431e-311
8.68406e-311
-4.22243e-310
-6.701e-310
-2.99934e-310
-4.60052e-310
-6.70328e-310
-1.50858e-310
9.16063e-311
3.90413e-310
1.95687e-310
-3.44524e-311
-2.55597e-310
3.65358e-311
-8.60017e-310
-4.65099e-310
-7.84112e-310
-9.46165e-310
-8.84584e-310
-8.11327e-310
-4.25796e-310
-6.90006e-310
-1.03846e-309
-1.92881e-309
-1.35802e-309
1.92279e-312
6.16396e-310
7.89325e-310
1.62063e-309
8.40384e-310
8.97678e-310
2.07842e-310
9.77285e-310
7.06136e-310
1.35575e-310
-7.19019e-310
-2.16453e-310
-1.51781e-310
8.37911e-310
9.82954e-310
9.09419e-310
3.2619e-310
2.60673e-310
-5.04105e-310
-4.4724e-310
-5.70469e-310
-2.88277e-310
-5.63774e-310
-2.45073e-310
-1.27213e-310
-1.27132e-310
-2.24579e-311
2.3545e-310
4.90176e-310
3.33522e-310
-6.72727e-311
3.07814e-310
7.34257e-310
4.85116e-310
1.0903e-309
4.31443e-310
3.90975e-310
-3.57798e-311
-1.18015e-310
3.42499e-310
2.87967e-310
4.80416e-310
-2.59718e-310
-1.4425e-310
-6.30275e-311
4.06691e-311
3.89538e-310
-3.19467e-310
-1.03169e-310
-8.68983e-311
-1.08529e-311
4.61159e-310
-1.61453e-310
-5.93942e-310
-3.14543e-311
-4.94991e-311
-3.55863e-310
-4.1594e-310
-4.39446e-310
-2.638e-310
-6.85247e-310
-7.87066e-310
1.77273e-310
2.34593e-310
2.04632e-310
-1.72947e-310
-1.19846e-310
9.87149e-311
2.31791e-310
-3.72816e-310
-4.30599e-310
-1.13484e-309
-1.48061e-309
-4.76058e-310
-7.5918e-310
-1.03121e-309
-1.56539e-309
-1.92384e-309
-2.10511e-309
-1.92697e-309
-5.90121e-310
-5.51357e-310
-9.15315e-310
-1.17695e-310
4.81151e-310
3.24089e-310
5.44701e-311
-8.40683e-310
-8.14774e-310
-2.1131e-310
-5.69102e-310
-5.24257e-310
-4.51851e-310
2.64102e-310
9.47723e-310
6.83231e-310
4.87528e-310
-4.75735e-310
-9.48584e-310
-3.41404e-310
-2.34164e-310
-6.13729e-310
-2.11464e-310
-2.6675e-310
-4.35222e-310
3.57638e-311
-5.44716e-310
-1.2968e-310
1.36703e-310
7.4667e-310
3.76566e-310
7.37679e-310
3.70194e-310
2.63242e-310
4.48211e-310
5.00252e-310
4.38841e-310
-5.23499e-311
-4.6492e-310
-1.46734e-310
1.40872e-310
1.72022e-310
-1.30829e-310
1.73307e-310
-4.78586e-310
-1.70855e-310
6.04312e-310
-4.12557e-310
4.17999e-311
-3.93475e-311
-4.21891e-310
5.01761e-311
1.99809e-310
-1.78721e-310
-8.16358e-311
-1.70378e-310
-3.37567e-310
-2.38234e-310
-2.8108e-310
-3.3857e-310
-8.59436e-310
-3.11425e-310
1.85454e-310
4.71982e-311
2.25236e-310
-2.74117e-310
1.04932e-310
3.27297e-310
2.61021e-310
-1.44622e-310
-6.55536e-310
-1.00945e-309
-8.32816e-310
-3.14937e-310
-4.20482e-310
-7.818e-310
-1.27734e-309
-9.4862e-310
-2.93406e-310
-6.62442e-310
3.1194e-310
4.4826e-310
-2.18089e-310
-1.44682e-309
-3.27972e-310
-1.8274e-309
-2.22867e-309
-1.53719e-309
-2.06077e-309
1.0675e-310
-4.99451e-310
5.40813e-310
5.60966e-310
-4.84242e-310
-1.26675e-310
2.79739e-310
1.68047e-310
-5.19714e-310
-5.83091e-310
5.00583e-311
2.57822e-310
-1.01852e-310
-3.52512e-310
7.72005e-311
-2.46892e-310
8.60717e-312
-9.59599e-310
-6.06248e-311
6.01921e-310
1.16548e-309
4.60027e-310
5.29805e-310
5.5218e-310
5.26701e-310
8.03878e-310
2.62637e-310
4.60809e-310
2.51392e-311
-6.48036e-310
-1.79277e-310
-1.57787e-310
-2.53215e-310
2.53784e-310
-1.46643e-310
-6.49578e-310
-5.51416e-310
2.8388e-310
-2.4181e-310
-5.75203e-311
-5.82903e-310
-6.22551e-310
1.06249e-310
2.8072e-310
-3.72128e-311
2.85159e-310
-2.39221e-311
-9.76436e-311
-7.56052e-310
-1.51505e-310
-4.37371e-310
-7.41538e-310
-5.54232e-310
-2.77872e-310
8.90845e-311
-3.782e-312
-2.51389e-310
2.02836e-310
4.51424e-310
6.34389e-310
5.80941e-310
-1.33357e-310
-6.31364e-310
-2.79063e-310
-5.76518e-310
-5.31236e-310
-1.75199e-311
-7.86364e-310
-4.22064e-310
1.85087e-310
2.26081e-310
7.94871e-310
-1.41976e-310
-1.21279e-309
-1.19963e-309
-1.1629e-311
-1.72507e-309
-1.76262e-309
-2.31823e-309
-2.1259e-309
-5.91646e-310
-6.88553e-311
3.66811e-310
7.91292e-310
-1.73489e-310
6.79267e-310
5.37375e-310
1.51629e-310
-1.52442e-310
-1.72781e-311
1.42721e-310
3.39113e-310
-7.42955e-310
-6.4774e-310
-4.25598e-310
-4.43258e-310
-2.05992e-310
-8.10846e-310
6.41039e-311
7.95709e-310
9.34194e-310
2.22508e-310
6.94643e-310
6.89608e-310
4.19338e-310
2.07215e-310
-1.42532e-311
3.84467e-311
-5.20305e-311
-4.25986e-310
-2.9791e-310
-5.22126e-310
-9.50346e-311
-5.99986e-312
-5.50174e-310
-6.57078e-310
-8.39525e-310
3.08593e-310
-8.50827e-310
-8.27983e-310
-2.65648e-310
-7.15259e-311
2.65048e-310
2.66273e-310
-1.70687e-310
2.73454e-310
2.37859e-310
-4.35043e-310
-5.33748e-310
-1.75809e-310
-4.82482e-310
-9.13364e-310
-8.15099e-310
-7.02901e-310
9.36144e-311
2.37292e-311
-1.59347e-311
-3.11751e-310
-2.33636e-310
5.12128e-311
-1.72136e-311
1.50452e-310
1.6539e-310
5.04993e-310
-1.41806e-310
-8.39626e-311
5.11508e-310
-5.3843e-310
-4.19004e-311
-3.52161e-310
-3.98182e-311
2.64179e-310
3.24546e-310
-4.08225e-310
2.55348e-311
4.76364e-310
1.47471e-309
1.66233e-309
2.62605e-311
-3.78854e-310
1.15871e-309
5.68752e-310
7.24177e-311
-1.93087e-310
7.5939e-310
4.2626e-310
2.44313e-310
5.15823e-310
5.04206e-310
-4.003e-311
-8.72594e-311
1.37424e-310
-8.24543e-310
-8.95938e-310
-7.40294e-310
-3.81751e-310
-4.12839e-310
-4.73357e-310
6.39625e-311
8.8829e-310
1.26681e-309
5.2074e-310
7.24158e-310
9.27063e-310
5.29472e-310
6.70222e-310
1.82608e-310
-1.62752e-310
-2.17622e-311
-2.97071e-310
-3.61595e-310
-4.32236e-310
-1.30119e-310
-1.14572e-310
-6.17941e-310
-4.83683e-310
-7.33992e-310
2.24638e-312
-7.90449e-310
-8.14118e-310
-1.75969e-310
3.03977e-310
2.51934e-310
4.68033e-312
-6.77644e-311
-2.15391e-310
1.34277e-310
-4.09113e-310
-3.32506e-310
-4.63538e-311
-2.49913e-310
-3.48155e-310
-5.4406e-310
-4.83092e-310
-1.77327e-310
-1.0656e-310
8.56127e-311
-4.00498e-310
-7.66976e-310
2.28001e-310
5.6538e-311
6.93065e-311
3.78561e-310
3.91127e-310
-7.88772e-310
-7.12903e-310
-1.77276e-310
-8.56574e-311
3.8777e-310
-4.75425e-310
-3.41141e-310
3.62618e-311
-4.00229e-310
-1.10437e-310
-4.32563e-311
1.24696e-311
1.33302e-309
1.25171e-309
1.4483e-310
2.22889e-310
-7.52735e-311
4.20887e-310
9.89497e-310
2.5355e-310
1.12141e-309
9.03208e-310
1.01857e-309
1.05008e-309
1.04812e-309
4.57459e-310
2.52164e-310
-4.33438e-310
-5.90768e-310
-8.57822e-310
-3.4876e-310
-2.56499e-310
-6.32673e-310
-4.02801e-310
-3.94492e-311
8.40405e-310
1.76826e-309
6.63015e-310
6.36623e-310
7.4384e-310
2.47232e-310
2.75522e-310
-1.17649e-310
-3.05307e-310
1.12803e-310
-1.49624e-310
-7.10364e-311
-4.21779e-310
-2.76258e-310
2.52153e-310
-4.71216e-310
-5.02103e-310
-8.25677e-310
-8.03111e-310
-7.19175e-310
-8.72763e-310
-3.49942e-310
-2.04763e-310
-3.42542e-310
4.03286e-310
5.98925e-311
-3.77989e-310
-4.80121e-310
-5.1674e-310
1.3012e-310
4.55102e-310
3.49602e-310
8.02373e-311
-5.645e-310
-4.67403e-310
-6.71203e-310
-2.23061e-310
4.13789e-310
-2.19845e-310
-2.29105e-310
2.42581e-310
3.21234e-310
6.87138e-311
3.5609e-310
4.41984e-310
-2.24039e-311
-4.05035e-310
5.35306e-311
-7.74903e-310
-6.45943e-310
-8.01935e-310
-6.77015e-310
2.02259e-310
1.01821e-309
9.15168e-310
1.0803e-309
3.72777e-310
6.14702e-310
1.5318e-309
4.07011e-310
2.12689e-310
1.08583e-310
2.76557e-310
1.82423e-310
-3.59446e-311
-4.15577e-310
-1.81279e-310
3.51609e-310
5.56515e-310
2.97827e-310
6.62682e-310
2.26673e-310
-4.62729e-310
-7.16963e-310
-5.938e-310
-1.02009e-310
-4.16167e-311
5.46382e-312
3.48496e-310
-8.39092e-311
7.75127e-310
1.50985e-309
7.50431e-310
8.99543e-310
9.38524e-310
1.91492e-310
1.35858e-310
-1.30853e-310
8.67262e-311
3.63746e-310
3.58175e-310
-5.71451e-310
-4.6506e-310
-1.84366e-310
1.03046e-310
-2.21856e-310
-5.9639e-310
-4.71081e-310
-7.12473e-310
-3.99305e-310
-5.79856e-310
-1.33951e-310
-5.22488e-310
-2.11251e-311
-4.72844e-311
-4.15546e-310
-8.40131e-311
-4.39444e-310
-3.84265e-310
-2.10382e-310
2.0033e-310
2.87227e-310
1.34395e-310
-2.69821e-310
-3.73039e-311
-6.12307e-310
1.09456e-310
5.58647e-310
4.4828e-310
3.60957e-310
2.62154e-310
2.23617e-310
2.87524e-310
2.21862e-310
-2.47227e-310
-2.21259e-310
-2.65374e-310
-8.68012e-310
-9.59437e-310
-1.03667e-309
-1.16678e-309
-1.02108e-309
-7.55182e-310
-4.60384e-310
-1.07256e-309
-1.50395e-309
-2.31621e-309
9.67353e-310
-4.02394e-311
-2.28925e-310
3.05614e-310
4.94238e-310
-2.6087e-310
-2.24522e-310
-8.76117e-311
-5.10529e-310
-2.51551e-310
4.21829e-310
8.56678e-310
2.80993e-310
8.02872e-310
9.2897e-311
1.23391e-311
1.3988e-310
-7.80776e-310
-7.09544e-310
-1.20728e-310
-1.06924e-311
6.21291e-310
6.14849e-310
7.00572e-310
1.3065e-309
7.01155e-310
6.761e-310
9.4851e-310
4.29091e-310
1.68748e-310
2.35672e-310
-6.13902e-312
2.47634e-310
3.76859e-310
-8.32248e-310
-2.6601e-310
-1.10759e-310
3.0244e-310
1.06508e-310
-4.6036e-310
-9.94448e-310
-6.93128e-310
-6.61503e-310
-6.03263e-310
-7.92284e-310
-5.89802e-310
-6.5659e-311
-3.27836e-310
-4.81064e-310
-4.46459e-310
-4.05288e-310
-2.89157e-310
-3.92188e-310
2.57461e-310
2.29557e-310
3.55003e-310
2.88988e-310
6.81185e-311
-3.63987e-310
1.46281e-310
1.1279e-309
1.12193e-309
1.37514e-310
6.45858e-311
5.53907e-310
8.03302e-310
1.209e-309
4.81267e-310
5.77544e-311
-6.65187e-312
-2.69235e-310
-4.46791e-310
-1.28655e-309
-1.54045e-309
-2.0221e-309
-1.38627e-309
-4.71561e-310
-1.18482e-309
-2.35935e-309
-4.11958e-309
1.64996e-309
1.07552e-309
5.75864e-310
1.99671e-310
2.92489e-310
-5.45575e-310
-7.01418e-310
-3.32946e-310
-3.73644e-310
-4.82427e-310
-7.73609e-311
1.51314e-309
1.65863e-309
1.23257e-309
9.22817e-310
1.14648e-309
2.97743e-310
-2.54836e-310
-3.64338e-310
8.52096e-311
-6.85476e-311
3.96614e-310
4.07665e-310
6.39917e-310
1.74904e-309
1.08512e-309
8.65103e-310
8.45547e-310
6.31749e-310
2.98434e-310
3.73006e-310
3.33288e-311
2.34395e-310
1.37707e-310
-8.88501e-310