/*--------------------------------*- C++ -*----------------------------------*\
  =========                 |
  \\      /  F ield         | OpenFOAM: The Open Source CFD Toolbox
   \\    /   O peration     | Website:  https://openfoam.org
    \\  /    A nd           | Version:  11
     \\/     M anipulation  |
\*---------------------------------------------------------------------------*/
FoamFile
{
    format      ascii;
    class       volScalarField;
    location    "100";
    object      C;
}
// * * * * * * * * * * * * * * * * * * * * * * * * * * * * * * * * * * * * * //

dimensions      [0 0 0 1 0 0 0];

internalField   nonuniform List<scalar> 
427520
(
2.62804e-224
2.53983e-224
2.29436e-224
1.97788e-224
1.64816e-224
1.33962e-224
1.06896e-224
8.41196e-225
6.54753e-225
5.05037e-225
3.8649e-225
2.93649e-225
2.21601e-225
1.66138e-225
1.23757e-225
9.15977e-226
6.73604e-226
4.92149e-226
3.57199e-226
2.57503e-226
1.84347e-226
1.31034e-226
9.24526e-227
6.47341e-227
4.49677e-227
3.09804e-227
2.11615e-227
1.43258e-227
9.60805e-228
6.3814e-228
4.19533e-228
2.72884e-228
1.75523e-228
1.11583e-228
7.00685e-229
4.34349e-229
2.65616e-229
1.60116e-229
9.50534e-230
5.54982e-230
3.18124e-230
1.79922e-230
1.00541e-230
5.55633e-231
3.03884e-231
1.64558e-231
8.82635e-232
4.69054e-232
2.47025e-232
1.28947e-232
6.67272e-233
3.42344e-233
1.74154e-233
8.7851e-234
4.3947e-234
2.18022e-234
1.07269e-234
5.23437e-235
2.53321e-235
1.21591e-235
5.78835e-236
2.73306e-236
1.28006e-236
5.94892e-237
2.74602e-237
1.26266e-237
5.83224e-238
2.76998e-238
1.43274e-238
8.95045e-239
7.35864e-239
7.67528e-239
9.09161e-239
1.12747e-238
1.408e-238
1.73927e-238
2.10175e-238
2.45843e-238
2.74678e-238
2.87322e-238
1.43966e-223
1.21007e-223
9.96809e-224
8.13256e-224
6.5773e-224
5.27191e-224
4.18678e-224
3.29458e-224
2.56951e-224
1.98705e-224
1.52428e-224
1.16035e-224
8.76841e-225
6.5791e-225
4.90226e-225
3.62787e-225
2.66651e-225
1.94652e-225
1.41113e-225
1.01582e-225
7.25993e-226
5.15035e-226
3.62601e-226
2.53277e-226
1.75474e-226
1.20543e-226
8.20791e-227
5.53757e-227
3.70019e-227
2.4477e-227
1.60219e-227
1.03723e-227
6.63754e-228
4.19619e-228
2.61911e-228
1.61291e-228
9.79286e-229
5.85714e-229
3.44721e-229
1.99316e-229
1.12873e-229
6.31718e-230
3.49691e-230
1.9157e-230
1.03908e-230
5.58212e-231
2.97098e-231
1.56691e-231
8.19048e-232
4.24386e-232
2.17996e-232
1.11024e-232
5.60664e-233
2.80758e-233
1.39421e-233
6.86611e-234
3.35348e-234
1.6244e-234
7.80395e-235
3.71852e-235
1.75743e-235
8.23896e-236
3.83215e-236
1.76938e-236
8.12189e-237
3.72195e-237
1.72313e-237
8.32013e-238
4.50606e-238
3.0543e-238
2.73258e-238
2.99913e-238
3.62755e-238
4.53481e-238
5.70324e-238
7.14593e-238
8.89217e-238
1.09791e-237
1.3433e-237
1.61114e-237
5.54134e-223
4.52975e-223
3.53857e-223
2.75017e-223
2.14073e-223
1.66821e-223
1.29904e-223
1.00899e-223
7.80582e-224
6.00857e-224
4.59881e-224
3.49822e-224
2.64394e-224
1.9851e-224
1.48041e-224
1.0965e-224
8.06529e-225
5.8907e-225
4.27164e-225
3.07494e-225
2.19693e-225
1.55756e-225
1.09551e-225
7.64213e-226
5.28581e-226
3.62379e-226
2.46158e-226
1.65612e-226
1.10309e-226
7.27062e-227
4.73975e-227
3.05443e-227
1.94466e-227
1.22244e-227
7.58209e-228
4.63677e-228
2.79358e-228
1.65662e-228
9.65762e-229
5.52387e-229
3.0868e-229
1.70703e-229
9.34562e-230
5.067e-230
2.72134e-230
1.4481e-230
7.63617e-231
3.99102e-231
2.06767e-231
1.06198e-231
5.40795e-232
2.73068e-232
1.3673e-232
6.7896e-233
3.3438e-233
1.63336e-233
7.91399e-234
3.80374e-234
1.81369e-234
8.5801e-235
4.02774e-235
1.87658e-235
8.68147e-236
3.99149e-236
1.82799e-236
8.38918e-237
3.9212e-237
1.94563e-237
1.11647e-237
8.22458e-238
7.90916e-238
9.04798e-238
1.1192e-237
1.42414e-237
1.82901e-237
2.3575e-237
3.04717e-237
3.94717e-237
5.08719e-237
6.2643e-237
1.73522e-222
1.43335e-222
1.10313e-222
8.33106e-223
6.28291e-223
4.75367e-223
3.60883e-223
2.74535e-223
2.08932e-223
1.58823e-223
1.20435e-223
9.10023e-224
6.84607e-224
5.12421e-224
3.81395e-224
2.82161e-224
2.07412e-224
1.51442e-224
1.09802e-224
7.90321e-225
5.64556e-225
4.00127e-225
2.81284e-225
1.96071e-225
1.35474e-225
9.27501e-226
6.2895e-226
4.22258e-226
2.80544e-226
1.84362e-226
1.19772e-226
7.68777e-227
4.87238e-227
3.04709e-227
1.87897e-227
1.14157e-227
6.82742e-228
4.01551e-228
2.31935e-228
1.31261e-228
7.24032e-229
3.9561e-229
2.14158e-229
1.14874e-229
6.10638e-230
3.21721e-230
1.68018e-230
8.69886e-231
4.46522e-231
2.27269e-231
1.14709e-231
5.74192e-232
2.85075e-232
1.40395e-232
6.85925e-233
3.32495e-233
1.59932e-233
7.63464e-234
3.61766e-234
1.70196e-234
7.9522e-235
3.69176e-235
1.70416e-235
7.83319e-236
3.59688e-236
1.66347e-236
7.91379e-237
4.07508e-237
2.49598e-237
1.99101e-237
2.03737e-237
2.41979e-237
3.07055e-237
4.00054e-237
5.27348e-237
6.99998e-237
9.33404e-237
1.24328e-236
1.6247e-236
1.97777e-236
4.79703e-222
4.03058e-222
3.11573e-222
2.32937e-222
1.72386e-222
1.27518e-222
9.46019e-223
7.04205e-223
5.25586e-223
3.92839e-223
2.93662e-223
2.19286e-223
1.63389e-223
1.21356e-223
8.97768e-224
6.61029e-224
4.84126e-224
3.52484e-224
2.55006e-224
1.83229e-224
1.30704e-224
9.25241e-225
6.49711e-225
4.52383e-225
3.12201e-225
2.1346e-225
1.4453e-225
9.68605e-226
6.42195e-226
4.20999e-226
2.72732e-226
1.74487e-226
1.10171e-226
6.86024e-227
4.20957e-227
2.54328e-227
1.51147e-227
8.82628e-228
5.05692e-228
2.83538e-228
1.54627e-228
8.3583e-229
4.47842e-229
2.37864e-229
1.25244e-229
6.53795e-230
3.38389e-230
1.73669e-230
8.83892e-231
4.46165e-231
2.23388e-231
1.10954e-231
5.46777e-232
2.67377e-232
1.29765e-232
6.25167e-233
2.99045e-233
1.42067e-233
6.70514e-234
3.14524e-234
1.46708e-234
6.80956e-235
3.14871e-235
1.45334e-235
6.72507e-236
3.15236e-236
1.53622e-236
8.2558e-237
5.39654e-237
4.61657e-237
4.97372e-237
6.10602e-237
7.94455e-237
1.05941e-236
1.42927e-236
1.93981e-236
2.63426e-236
3.54167e-236
4.60389e-236
5.50588e-236
1.21584e-221
1.03822e-221
8.11997e-222
6.0781e-222
4.46227e-222
3.25439e-222
2.37234e-222
1.73294e-222
1.26929e-222
9.31879e-223
6.85227e-223
5.04144e-223
3.70743e-223
2.72242e-223
1.99431e-223
1.45617e-223
1.05895e-223
7.66425e-224
5.5171e-224
3.94761e-224
2.80604e-224
1.98041e-224
1.38704e-224
9.63545e-225
6.63566e-225
4.52791e-225
3.05973e-225
2.04645e-225
1.35395e-225
8.85569e-226
5.72249e-226
3.65086e-226
2.29792e-226
1.42582e-226
8.71411e-227
5.24097e-227
3.0988e-227
1.79911e-227
1.02404e-227
5.69861e-228
3.07943e-228
1.64998e-228
8.76581e-229
4.61758e-229
2.41193e-229
1.24931e-229
6.41743e-230
3.26951e-230
1.65229e-230
8.28369e-231
4.12065e-231
2.03415e-231
9.96697e-232
4.84841e-232
2.34208e-232
1.12382e-232
5.35842e-233
2.53975e-233
1.19722e-233
5.61618e-234
2.62371e-234
1.2219e-234
5.68128e-235
2.64408e-235
1.23834e-235
5.9098e-236
2.96181e-236
1.66335e-236
1.15395e-236
1.04609e-236
1.17466e-236
1.4829e-236
1.97216e-236
2.68166e-236
3.68117e-236
5.06484e-236
6.92889e-236
9.2977e-236
1.19382e-235
1.40413e-235
2.88902e-221
2.50101e-221
1.98229e-221
1.49396e-221
1.09592e-221
7.93509e-222
5.71639e-222
4.11463e-222
2.96516e-222
2.14074e-222
1.54827e-222
1.12117e-222
8.12309e-223
5.88356e-223
4.25652e-223
3.07325e-223
2.21264e-223
1.58729e-223
1.13373e-223
8.05687e-224
5.69287e-224
3.9969e-224
2.78657e-224
1.92798e-224
1.323e-224
8.99857e-225
6.06287e-225
4.04389e-225
2.66843e-225
1.74081e-225
1.12198e-225
7.1388e-226
4.48059e-226
2.77172e-226
1.6884e-226
1.0118e-226
5.95856e-227
3.4441e-227
1.95064e-227
1.0794e-227
5.79398e-228
3.08417e-228
1.62804e-228
8.52255e-229
4.42458e-229
2.27827e-229
1.16363e-229
5.89596e-230
2.96408e-230
1.47876e-230
7.32258e-231
3.59991e-231
1.75749e-231
8.52323e-232
4.10746e-232
1.96778e-232
9.37601e-233
4.44566e-233
2.09901e-233
9.87625e-234
4.63549e-234
2.1731e-234
1.0194e-234
4.80009e-235
2.28297e-235
1.11247e-235
5.74251e-236
3.36278e-236
2.45494e-236
2.33012e-236
2.70241e-236
3.4891e-236
4.72314e-236
6.51765e-236
9.04949e-236
1.25342e-235
1.71508e-235
2.28447e-235
2.89301e-235
3.35512e-235
6.52977e-221
5.71676e-221
4.58894e-221
3.48961e-221
2.56831e-221
1.85521e-221
1.32701e-221
9.4502e-222
6.72121e-222
4.78187e-222
3.40553e-222
2.42793e-222
1.73229e-222
1.23628e-222
8.81933e-223
6.2845e-223
4.46989e-223
3.17094e-223
2.24191e-223
1.57859e-223
1.10619e-223
7.70877e-224
5.33873e-224
3.67189e-224
2.50634e-224
1.69665e-224
1.13827e-224
7.56297e-225
4.97302e-225
3.23374e-225
2.07784e-225
1.31823e-225
8.25031e-226
5.08935e-226
3.09138e-226
1.84712e-226
1.08444e-226
6.2477e-227
3.52612e-227
1.94376e-227
1.03886e-227
5.50611e-228
2.89415e-228
1.50873e-228
7.80098e-229
4.00116e-229
2.03602e-229
1.02805e-229
5.15184e-230
2.56291e-230
1.26601e-230
6.21171e-231
3.02831e-231
1.46749e-231
7.07185e-232
3.39076e-232
1.61856e-232
7.69707e-233
3.64959e-233
1.72705e-233
8.16624e-234
3.86418e-234
1.83377e-234
8.75831e-235
4.23945e-235
2.11235e-235
1.12258e-235
6.82495e-236
5.19393e-236
5.1062e-236
6.06896e-236
7.97308e-236
1.09391e-235
1.52513e-235
2.13149e-235
2.95758e-235
4.03143e-235
5.31937e-235
6.64881e-235
7.62241e-235
1.41805e-220
1.25294e-220
1.0172e-220
7.80768e-221
5.77692e-221
4.17584e-221
2.97603e-221
2.10387e-221
1.48114e-221
1.04088e-221
7.31193e-222
5.13761e-222
3.61127e-222
2.539e-222
1.78488e-222
1.25394e-222
8.79863e-223
6.16225e-223
4.30483e-223
2.99752e-223
2.07897e-223
1.43518e-223
9.85418e-224
6.72477e-224
4.55784e-224
3.06582e-224
2.04509e-224
1.35185e-224
8.84813e-225
5.72974e-225
3.66788e-225
2.3191e-225
1.44694e-225
8.90025e-226
5.39181e-226
3.21355e-226
1.88213e-226
1.08181e-226
6.0917e-227
3.35047e-227
1.78675e-227
9.44886e-228
4.95547e-228
2.57766e-228
1.33002e-228
6.80857e-229
3.45859e-229
1.74374e-229
8.72812e-230
4.3385e-230
2.14232e-230
1.05127e-230
5.12885e-231
2.4889e-231
1.20204e-231
5.78125e-232
2.77096e-232
1.32466e-232
6.32204e-233
3.01566e-233
1.43969e-233
6.89076e-234
3.31445e-234
1.60835e-234
7.93246e-235
4.04224e-235
2.20775e-235
1.38629e-235
1.09015e-235
1.10016e-235
1.33151e-235
1.77213e-235
2.45513e-235
3.44578e-235
4.83032e-235
6.69403e-235
9.07193e-235
1.18544e-234
1.46458e-234
1.66332e-234
2.98085e-220
2.65364e-220
2.17555e-220
1.68473e-220
1.25411e-220
9.08743e-221
6.46788e-221
4.55067e-221
3.17907e-221
2.21172e-221
1.53531e-221
1.06463e-221
7.3791e-222
5.11332e-222
3.5422e-222
2.4525e-222
1.69644e-222
1.1718e-222
8.07808e-223
5.55448e-223
3.80696e-223
2.59908e-223
1.76629e-223
1.19398e-223
8.02232e-224
5.35358e-224
3.54561e-224
2.3286e-224
1.5153e-224
9.76186e-225
6.22039e-225
3.91704e-225
2.43524e-225
1.49327e-225
9.02188e-226
5.36461e-226
3.13578e-226
1.79943e-226
1.01193e-226
5.5604e-227
2.96408e-227
1.56678e-227
8.21335e-228
4.27063e-228
2.20294e-228
1.12757e-228
5.7283e-229
2.88912e-229
1.44711e-229
7.20093e-230
3.56122e-230
1.75117e-230
8.56634e-231
4.17106e-231
2.02284e-231
9.77811e-232
4.71504e-232
2.27019e-232
1.09258e-232
5.26271e-233
2.54085e-233
1.23189e-233
6.01314e-234
2.96709e-234
1.49152e-234
7.76808e-235
4.34994e-235
2.80671e-235
2.26391e-235
2.32891e-235
2.85595e-235
3.83703e-235
5.3518e-235
7.54082e-235
1.05777e-234
1.46157e-234
1.96797e-234
2.54804e-234
3.11657e-234
3.51235e-234
6.09963e-220
5.46365e-220
4.51693e-220
3.52609e-220
2.64089e-220
1.91994e-220
1.36673e-220
9.58796e-221
6.65981e-221
4.59566e-221
3.15794e-221
2.16427e-221
1.48084e-221
1.01215e-221
6.91237e-222
4.71699e-222
3.21579e-222
2.18961e-222
1.48844e-222
1.00965e-222
6.83058e-223
4.60604e-223
3.09391e-223
2.06872e-223
1.37595e-223
9.09683e-224
5.97344e-224
3.89275e-224
2.51549e-224
1.61044e-224
1.02054e-224
6.39549e-225
3.95958e-225
2.41943e-225
1.45748e-225
8.64626e-226
5.0451e-226
2.89162e-226
1.62515e-226
8.93049e-227
4.7655e-227
2.52157e-227
1.32325e-227
6.88824e-228
3.55772e-228
1.82368e-228
9.28036e-229
4.68992e-229
2.35458e-229
1.17486e-229
5.82894e-230
2.87702e-230
1.41351e-230
6.91735e-231
3.37423e-231
1.64195e-231
7.97794e-232
3.87453e-232
1.88302e-232
9.17042e-233
4.48244e-233
2.20336e-233
1.09208e-233
5.48073e-234
2.80714e-234
1.4925e-234
8.54719e-235
5.64204e-235
4.64147e-235
4.84224e-235
5.99447e-235
8.1079e-235
1.13595e-234
1.60381e-234
2.24786e-234
3.09424e-234
4.13943e-234
5.31517e-234
6.44556e-234
7.21836e-234
1.22047e-219
1.09878e-219
9.1486e-220
7.19269e-220
5.41822e-220
3.95335e-220
2.81716e-220
1.97307e-220
1.36472e-220
9.35568e-221
6.37366e-221
4.32327e-221
2.92365e-221
1.97292e-221
1.32923e-221
8.94378e-222
6.01032e-222
4.0336e-222
2.70277e-222
1.80763e-222
1.20618e-222
8.02627e-223
5.32323e-223
3.51672e-223
2.3127e-223
1.51292e-223
9.83798e-224
6.35402e-224
4.07273e-224
2.58846e-224
1.62974e-224
1.01556e-224
6.25715e-225
3.80783e-225
2.28636e-225
1.35295e-225
7.88078e-226
4.51257e-226
2.53579e-226
1.39456e-226
7.45738e-227
3.95446e-227
2.07987e-227
1.08527e-227
5.61965e-228
2.88861e-228
1.47443e-228
7.47616e-229
3.76736e-229
1.88757e-229
9.40813e-230
4.66752e-230
2.30637e-230
1.13591e-230
5.58044e-231
2.7371e-231
1.34164e-231
6.5794e-232
3.2321e-232
1.59276e-232
7.8868e-233
3.93203e-233
1.97911e-233
1.00993e-233
5.26653e-234
2.8545e-234
1.66786e-234
1.12244e-234
9.37972e-235
9.88945e-235
1.23276e-234
1.67534e-234
2.354e-234
3.32597e-234
4.65387e-234
6.38024e-234
8.48351e-234
1.08133e-233
1.3018e-233
1.4503e-233
2.39654e-219
2.16669e-219
1.81486e-219
1.43571e-219
1.08723e-219
7.96156e-220
5.68196e-220
3.97635e-220
2.74181e-220
1.86969e-220
1.26449e-220
8.4999e-221
5.68792e-221
3.79343e-221
2.52347e-221
1.67521e-221
1.11014e-221
7.34458e-222
4.8509e-222
3.19799e-222
2.10386e-222
1.38067e-222
9.03467e-223
5.89208e-223
3.82751e-223
2.47504e-223
1.59211e-223
1.01805e-223
6.46587e-224
4.07552e-224
2.54712e-224
1.57696e-224
9.66207e-225
5.8526e-225
3.50099e-225
2.06589e-225
1.2011e-225
6.87123e-226
3.86156e-226
2.12629e-226
1.14027e-226
6.06461e-227
3.19974e-227
1.67518e-227
8.70521e-228
4.49173e-228
2.30213e-228
1.1725e-228
5.93697e-229
2.99024e-229
1.49894e-229
7.48296e-230
3.7228e-230
1.84717e-230
9.14849e-231
4.52695e-231
2.2404e-231
1.11023e-231
5.51603e-232
2.75174e-232
1.38066e-232
6.98153e-233
3.56757e-233
1.85003e-233
9.81293e-234
5.41421e-234
3.22116e-234
2.20454e-234
1.86655e-234
1.9848e-234
2.48739e-234
3.3922e-234
4.77504e-234
6.74632e-234
9.42036e-234
1.28634e-233
1.70092e-233
2.15423e-233
2.57755e-233
2.85924e-233
4.63212e-219
4.20246e-219
3.53788e-219
2.81376e-219
2.14084e-219
1.57305e-219
1.12455e-219
7.86786e-220
5.41274e-220
3.67526e-220
2.47033e-220
1.6475e-220
1.09214e-220
7.20614e-221
4.73736e-221
3.10523e-221
2.03043e-221
1.3248e-221
8.62666e-222
5.6062e-222
3.63565e-222
2.35232e-222
1.51803e-222
9.76728e-223
6.26296e-223
4.00008e-223
2.54322e-223
1.60857e-223
1.01139e-223
6.31651e-224
3.91518e-224
2.40629e-224
1.46505e-224
8.82724e-225
5.25784e-225
3.09257e-225
1.79414e-225
1.02531e-225
5.76284e-226
3.17778e-226
1.7097e-226
9.125e-227
4.83245e-227
2.5401e-227
1.32563e-227
6.87141e-228
3.53911e-228
1.81202e-228
9.22721e-229
4.67578e-229
2.35926e-229
1.1861e-229
5.94585e-230
2.97438e-230
1.48612e-230
7.42352e-231
3.71133e-231
1.85921e-231
9.34502e-232
4.71985e-232
2.39942e-232
1.23027e-232
6.37921e-233
3.35911e-233
1.81037e-233
1.01541e-233
6.14143e-234
4.26739e-234
3.656e-234
3.91721e-234
4.93176e-234
6.74433e-234
9.50504e-234
1.34227e-233
1.87024e-233
2.54426e-233
3.3477e-233
4.2166e-233
5.01914e-233
5.54782e-233
8.83474e-219
8.03846e-219
6.79606e-219
5.42981e-219
4.14833e-219
3.05765e-219
2.18965e-219
1.5321e-219
1.05223e-219
7.11981e-220
4.76062e-220
3.15318e-220
2.07283e-220
1.35448e-220
8.8081e-221
5.70546e-221
3.68372e-221
2.37177e-221
1.5233e-221
9.76112e-222
6.24071e-222
3.98074e-222
2.53292e-222
1.60731e-222
1.01685e-222
6.41084e-223
4.02589e-223
2.51682e-223
1.56533e-223
9.67872e-224
5.94492e-224
3.6243e-224
2.19107e-224
1.31228e-224
7.77833e-225
4.558e-225
2.63753e-225
1.50528e-225
8.46029e-226
4.67188e-226
2.52208e-226
1.3511e-226
7.1843e-227
3.79294e-227
1.98887e-227
1.03618e-227
5.36601e-228
2.76347e-228
1.41603e-228
7.22356e-229
3.67085e-229
1.85959e-229
9.39788e-230
4.74206e-230
2.39124e-230
1.20622e-230
6.09338e-231
3.08628e-231
1.5694e-231
8.02413e-232
4.13194e-232
2.1472e-232
1.12902e-232
6.03157e-233
3.29939e-233
1.87896e-233
1.1539e-233
8.13321e-234
7.04822e-234
7.60923e-234
9.62322e-234
1.31929e-233
1.861e-233
2.62639e-233
3.65176e-233
4.95106e-233
6.48651e-233
8.13175e-233
9.63744e-233
1.06211e-232
1.66624e-218
1.51971e-218
1.28941e-218
1.03421e-218
7.92962e-219
5.86111e-219
4.2042e-219
2.94246e-219
2.0183e-219
1.36176e-219
9.06489e-220
5.9683e-220
3.89441e-220
2.52262e-220
1.62424e-220
1.04063e-220
6.63959e-221
4.22142e-221
2.67576e-221
1.69139e-221
1.06643e-221
6.70736e-222
4.20815e-222
2.63333e-222
1.64326e-222
1.02228e-222
6.33777e-223
3.9139e-223
2.40635e-223
1.47202e-223
8.95318e-224
5.41019e-224
3.24532e-224
1.93071e-224
1.13808e-224
6.64024e-225
3.83067e-225
2.1824e-225
1.22616e-225
6.77915e-226
3.67159e-226
1.9742e-226
1.05411e-226
5.59048e-227
2.94597e-227
1.54306e-227
8.03707e-228
4.16466e-228
2.14812e-228
1.10354e-228
5.64996e-229
2.88496e-229
1.4703e-229
7.48527e-230
3.81018e-230
1.94113e-230
9.90868e-231
5.07395e-231
2.60988e-231
1.35043e-231
7.04072e-232
3.70603e-232
1.97458e-232
1.06926e-232
5.93069e-233
3.42566e-233
2.1343e-233
1.52556e-233
1.33785e-233
1.45632e-233
1.85083e-233
2.5439e-233
3.5915e-233
5.0655e-233
7.0297e-233
9.50249e-233
1.24032e-232
1.54872e-232
1.82881e-232
2.01051e-232
3.11301e-218
2.84491e-218
2.42103e-218
1.94825e-218
1.4984e-218
1.11025e-218
7.97602e-219
5.58429e-219
3.82672e-219
2.57582e-219
1.70817e-219
1.11882e-219
7.25276e-220
4.66135e-220
2.97441e-220
1.88658e-220
1.19055e-220
7.48064e-221
4.68282e-221
2.92179e-221
1.81763e-221
1.12763e-221
6.97733e-222
4.30603e-222
2.65035e-222
1.62666e-222
9.9531e-223
6.06934e-223
3.68695e-223
2.23006e-223
1.34226e-223
8.03409e-224
4.77848e-224
2.82187e-224
1.65308e-224
9.59719e-225
5.51625e-225
3.13551e-225
1.76019e-225
9.7395e-226
5.29023e-226
2.85438e-226
1.53014e-226
8.15146e-227
4.31678e-227
2.27331e-227
1.191e-227
6.21042e-228
3.22493e-228
1.66863e-228
8.60838e-229
4.43111e-229
2.27757e-229
1.16993e-229
6.01152e-230
3.09297e-230
1.59518e-230
8.25661e-231
4.29453e-231
2.24788e-231
1.18598e-231
6.31912e-232
3.40896e-232
1.86952e-232
1.05041e-232
6.14867e-233
3.8845e-233
2.81638e-233
2.50194e-233
2.74935e-233
3.51395e-233
4.84375e-233
6.8451e-233
9.64981e-233
1.33695e-232
1.80259e-232
2.3454e-232
2.91872e-232
3.43609e-232
3.76978e-232
5.77001e-218
5.28182e-218
4.50608e-218
3.63623e-218
2.80398e-218
2.08208e-218
1.4978e-218
1.04907e-218
7.18361e-219
4.82591e-219
3.18999e-219
2.07997e-219
1.34058e-219
8.55599e-220
5.41549e-220
3.40359e-220
2.12627e-220
1.32147e-220
8.17621e-221
5.03908e-221
3.09489e-221
1.89488e-221
1.15681e-221
7.04282e-222
4.27627e-222
2.58944e-222
1.56356e-222
9.41267e-223
5.64768e-223
3.37618e-223
2.00991e-223
1.19092e-223
7.01878e-224
4.11154e-224
2.392e-224
1.38087e-224
7.90261e-225
4.47882e-225
2.5107e-225
1.38955e-225
7.56538e-226
4.09423e-226
2.20272e-226
1.17837e-226
6.26983e-227
3.31915e-227
1.74891e-227
9.17637e-228
4.79693e-228
2.49974e-228
1.29939e-228
6.7422e-229
3.49476e-229
1.81112e-229
9.3927e-230
4.87949e-230
2.54194e-230
1.32945e-230
6.9895e-231
3.69907e-231
1.97376e-231
1.06381e-231
5.80617e-232
3.22204e-232
1.83234e-232
1.08621e-232
6.95705e-233
5.11982e-233
4.61409e-233
5.12628e-233
6.59553e-233
9.12201e-233
1.29066e-232
1.81898e-232
2.51667e-232
3.38583e-232
4.39361e-232
5.4522e-232
6.40237e-232
7.01227e-232
1.06238e-217
9.73829e-218
8.32536e-218
6.73396e-218
5.2043e-218
3.87152e-218
2.78844e-218
1.9538e-218
1.33711e-218
8.96787e-219
5.91152e-219
3.83942e-219
2.46209e-219
1.56169e-219
9.81322e-220
6.11673e-220
3.7862e-220
2.32954e-220
1.42582e-220
8.68708e-221
5.27144e-221
3.18731e-221
1.92091e-221
1.15423e-221
6.91598e-222
4.13269e-222
2.46283e-222
1.46362e-222
8.67259e-223
5.12256e-223
3.01509e-223
1.76767e-223
1.03173e-223
5.99141e-224
3.45933e-224
1.98435e-224
1.12991e-224
6.38045e-225
3.56905e-225
1.97439e-225
1.0767e-225
5.84072e-226
3.15198e-226
1.69246e-226
9.04413e-227
4.8113e-227
2.54894e-227
1.34538e-227
7.07829e-228
3.7141e-228
1.94485e-228
1.01702e-228
5.31497e-229
2.77819e-229
1.45378e-229
7.62315e-230
4.00979e-230
2.11815e-230
1.12506e-230
6.01678e-231
3.24482e-231
1.76785e-231
9.75445e-232
5.4731e-232
3.14799e-232
1.88893e-232
1.22666e-232
9.17222e-233
8.40099e-233
9.45268e-233
1.2256e-232
1.70168e-232
2.41125e-232
3.39814e-232
4.69641e-232
6.30693e-232
8.16589e-232
1.01095e-231
1.18464e-231
1.29567e-231
1.94517e-217
1.78507e-217
1.52873e-217
1.23893e-217
9.59305e-218
7.14753e-218
5.15337e-218
3.61214e-218
2.47088e-218
1.65492e-218
1.08833e-218
7.04459e-219
4.49751e-219
2.83725e-219
1.77138e-219
1.09598e-219
6.72779e-220
4.10169e-220
2.48568e-220
1.49844e-220
8.99115e-221
5.37284e-221
3.19885e-221
1.8982e-221
1.12297e-221
6.62458e-222
3.89739e-222
2.28682e-222
1.33821e-222
7.80908e-223
4.54332e-223
2.63461e-223
1.52217e-223
8.75808e-224
5.01539e-224
2.85672e-224
1.61725e-224
9.09214e-225
5.07101e-225
2.80171e-225
1.52905e-225
8.30769e-226
4.49386e-226
2.4204e-226
1.29827e-226
6.93677e-227
3.69325e-227
1.96014e-227
1.03751e-227
5.4796e-228
2.88945e-228
1.52222e-228
8.01773e-229
4.22553e-229
2.23018e-229
1.17988e-229
6.26356e-230
3.34013e-230
1.79138e-230
9.67522e-231
5.2702e-231
2.90043e-231
1.61672e-231
9.16519e-232
5.32836e-232
3.23526e-232
2.13092e-232
1.62118e-232
1.51213e-232
1.72619e-232
2.25785e-232
3.14877e-232
4.46967e-232
6.30024e-232
8.70014e-232
1.16664e-231
1.50771e-231
1.86293e-231
2.17918e-231
2.38069e-231
3.54496e-217
3.25626e-217
2.79267e-217
2.26697e-217
1.7581e-217
1.31165e-217
9.46551e-218
6.63678e-218
4.53819e-218
3.03602e-218
1.99256e-218
1.286e-218
8.17873e-219
5.13494e-219
3.18768e-219
1.9593e-219
1.19381e-219
7.21834e-220
4.33512e-220
2.58806e-220
1.53693e-220
9.08461e-221
5.3475e-221
3.13603e-221
1.83296e-221
1.06807e-221
6.20618e-222
3.59661e-222
2.07897e-222
1.19865e-222
6.89287e-223
3.95278e-223
2.25993e-223
1.28774e-223
7.30999e-224
4.13175e-224
2.32389e-224
1.29971e-224
7.22167e-225
3.98133e-225
2.17242e-225
1.18113e-225
6.39868e-226
3.45422e-226
1.85838e-226
9.96632e-227
5.32931e-227
2.84245e-227
1.5128e-227
8.03798e-228
4.26612e-228
2.26312e-228
1.2008e-228
6.3776e-229
3.39332e-229
1.81037e-229
9.69414e-230
5.21572e-230
2.82283e-230
1.53875e-230
8.46037e-231
4.7001e-231
2.64479e-231
1.51385e-231
8.89115e-232
5.46187e-232
3.65109e-232
2.83079e-232
2.69461e-232
3.12616e-232
4.12906e-232
5.7866e-232
8.23082e-232
1.16065e-231
1.60185e-231
2.14545e-231
2.76847e-231
3.41523e-231
3.98926e-231
4.35401e-231
6.43544e-217
5.91595e-217
5.07976e-217
4.12915e-217
3.20652e-217
2.39494e-217
1.72963e-217
1.21308e-217
8.29245e-218
5.54216e-218
3.63112e-218
2.33764e-218
1.48176e-218
9.26444e-219
5.72251e-219
3.49689e-219
2.11661e-219
1.27037e-219
7.56777e-220
4.47834e-220
2.63453e-220
1.54173e-220
8.98022e-221
5.20904e-221
3.01032e-221
1.73388e-221
9.95666e-222
5.70178e-222
3.25683e-222
1.85577e-222
1.05492e-222
5.98236e-223
3.38406e-223
1.90911e-223
1.07381e-223
6.01948e-224
3.36141e-224
1.86878e-224
1.03358e-224
5.68064e-225
3.09587e-225
1.68267e-225
9.12072e-226
4.93045e-226
2.65833e-226
1.42976e-226
7.67279e-227
4.10966e-227
2.19778e-227
1.17403e-227
6.2678e-228
3.34612e-228
1.78748e-228
9.56161e-229
5.12568e-229
2.756e-229
1.48773e-229
8.07098e-230
4.40523e-230
2.42203e-230
1.34328e-230
7.52785e-231
4.27342e-231
2.46824e-231
1.46388e-231
9.09849e-232
6.17806e-232
4.89073e-232
4.76138e-232
5.62255e-232
7.50508e-232
1.05735e-231
1.50735e-231
2.12682e-231
2.93422e-231
3.92631e-231
5.06023e-231
6.23415e-231
7.2734e-231
7.93226e-231
1.16452e-216
1.0712e-216
9.20699e-217
7.49248e-217
5.82475e-217
4.35458e-217
3.14691e-217
2.20764e-217
1.50873e-217
1.00751e-217
6.5914e-218
4.23431e-218
2.67631e-218
1.66728e-218
1.02538e-218
6.23391e-219
3.75129e-219
2.23678e-219
1.32286e-219
7.76666e-220
4.53027e-220
2.62716e-220
1.51564e-220
8.70357e-221
4.97744e-221
2.83607e-221
1.61066e-221
9.12034e-222
5.15068e-222
2.90178e-222
1.63111e-222
9.14876e-223
5.1205e-223
2.85962e-223
1.59327e-223
8.85423e-224
4.90625e-224
2.70954e-224
1.49048e-224
8.15902e-225
4.43648e-225
2.40803e-225
1.30462e-225
7.05506e-226
3.80838e-226
2.05234e-226
1.10436e-226
5.93515e-227
3.18678e-227
1.71019e-227
9.17719e-228
4.92697e-228
2.648e-228
1.42567e-228
7.69493e-229
4.1671e-229
2.26618e-229
1.23881e-229
6.81446e-230
3.77642e-230
2.11124e-230
1.19273e-230
6.82638e-231
3.97636e-231
2.38069e-231
1.49739e-231
1.03397e-231
8.37462e-232
8.35614e-232
1.00565e-231
1.35738e-231
1.92293e-231
2.74791e-231
3.88006e-231
5.35202e-231
7.15647e-231
9.21408e-231
1.13395e-230
1.3217e-230
1.44051e-230
2.10161e-216
1.93421e-216
1.66382e-216
1.35525e-216
1.05456e-216
7.89005e-217
5.70497e-217
4.00302e-217
2.73517e-217
1.82525e-217
1.19264e-217
7.6475e-218
4.82177e-218
2.99452e-218
1.83467e-218
1.11046e-218
6.64819e-219
3.94131e-219
2.31605e-219
1.35027e-219
7.81642e-220
4.49604e-220
2.57145e-220
1.46322e-220
8.28838e-221
4.67594e-221
2.62849e-221
1.47285e-221
8.22964e-222
4.5868e-222
2.55069e-222
1.41552e-222
7.84049e-223
4.33482e-223
2.39218e-223
1.31757e-223
7.24149e-224
3.9704e-224
2.17069e-224
1.18248e-224
6.4087e-225
3.47011e-225
1.87713e-225
1.01441e-225
5.47669e-226
2.95421e-226
1.59238e-226
8.57877e-227
4.62056e-227
2.48889e-227
1.34134e-227
7.23608e-228
3.90968e-228
2.11702e-228
1.14962e-228
6.26572e-229
3.43033e-229
1.88822e-229
1.04607e-229
5.83909e-230
3.28836e-230
1.87152e-230
1.07924e-230
6.33693e-231
3.8291e-231
2.43814e-231
1.71443e-231
1.42386e-231
1.45888e-231
1.79105e-231
2.44532e-231
3.48375e-231
4.99072e-231
7.05278e-231
9.72789e-231
1.30007e-230
1.67253e-230
2.05653e-230
2.39516e-230
2.60912e-230
3.78443e-216
3.48451e-216
2.9994e-216
2.44502e-216
1.90399e-216
1.42546e-216
1.03116e-216
7.23666e-217
4.94379e-217
3.2972e-217
2.15219e-217
1.37789e-217
8.66943e-218
5.36974e-218
3.27923e-218
1.97718e-218
1.17846e-218
6.95127e-219
4.06193e-219
2.35353e-219
1.35327e-219
7.72787e-220
4.38576e-220
2.47524e-220
1.39005e-220
7.77174e-221
4.32809e-221
2.40194e-221
1.32892e-221
7.33284e-222
4.03671e-222
2.21764e-222
1.2161e-222
6.65788e-223
3.63953e-223
1.98661e-223
1.08274e-223
5.8913e-224
3.19931e-224
1.73308e-224
9.35327e-225
5.04725e-225
2.72321e-225
1.46907e-225
7.92398e-226
4.27383e-226
2.30522e-226
1.24366e-226
6.71258e-227
3.62578e-227
1.96064e-227
1.06186e-227
5.76272e-228
3.13567e-228
1.71181e-228
9.3824e-229
5.16716e-229
2.86185e-229
1.59557e-229
8.96456e-230
5.08206e-230
2.91192e-230
1.69091e-230
1.00034e-230
6.09973e-231
3.93406e-231
2.82152e-231
2.40822e-231
2.53779e-231
3.18006e-231
4.39196e-231
6.29226e-231
9.03652e-231
1.27816e-230
1.76307e-230
2.35529e-230
3.02815e-230
3.72078e-230
4.33069e-230
4.71555e-230
6.8024e-216
6.26551e-216
5.39621e-216
4.40162e-216
3.42977e-216
2.56916e-216
1.85921e-216
1.30498e-216
8.91385e-217
5.9421e-217
3.8752e-217
2.47776e-217
1.55619e-217
9.61698e-218
5.85666e-218
3.51956e-218
2.08973e-218
1.22728e-218
7.13655e-219
4.11272e-219
2.35089e-219
1.33394e-219
7.5188e-220
4.21268e-220
2.34763e-220
1.302e-220
7.19001e-221
3.95552e-221
2.16887e-221
1.18578e-221
6.46683e-222
3.51925e-222
1.9117e-222
1.03686e-222
5.6162e-223
3.03851e-223
1.64214e-223
8.86524e-224
4.7802e-224
2.57347e-224
1.38196e-224
7.42544e-225
3.99217e-225
2.14765e-225
1.15613e-225
6.22821e-226
3.35798e-226
1.81224e-226
9.79173e-227
5.29815e-227
2.87176e-227
1.55991e-227
8.49525e-228
4.64091e-228
2.54472e-228
1.40144e-228
7.75761e-229
4.31973e-229
2.42189e-229
1.36859e-229
7.80457e-230
4.49907e-230
2.6292e-230
1.56652e-230
9.63895e-231
6.30153e-231
4.61786e-231
4.05945e-231
4.40517e-231
5.63483e-231
7.8707e-231
1.13378e-230
1.63222e-230
2.31078e-230
3.18785e-230
4.25744e-230
5.47102e-230
6.71861e-230
7.8159e-230
8.50759e-230
1.22089e-215
1.12486e-215
9.69225e-216
7.90997e-216
6.16669e-216
4.62139e-216
3.34538e-216
2.34843e-216
1.60394e-216
1.06878e-216
6.96506e-217
4.44849e-217
2.78974e-217
1.7207e-217
1.04542e-217
6.26473e-218
3.70747e-218
2.16921e-218
1.25607e-218
7.2048e-219
4.09728e-219
2.31195e-219
1.29535e-219
7.21133e-220
3.99151e-220
2.1979e-220
1.20468e-220
6.57585e-221
3.57656e-221
1.93918e-221
1.04857e-221
5.657e-222
3.04613e-222
1.6377e-222
8.79383e-223
4.71726e-223
2.52846e-223
1.35435e-223
7.24974e-224
3.87744e-224
2.07061e-224
1.107e-224
5.92563e-225
3.17607e-225
1.70469e-225
9.16298e-226
4.93298e-226
2.66026e-226
1.43734e-226
7.78236e-227
4.22383e-227
2.29876e-227
1.25502e-227
6.87671e-228
3.78374e-228
2.09188e-228
1.16286e-228
6.50467e-229
3.6644e-229
2.08108e-229
1.19293e-229
6.91398e-230
4.06385e-230
2.43761e-230
1.5136e-230
1.00392e-230
7.53139e-231
6.83252e-231
7.64039e-231
9.97332e-231
1.40828e-230
2.0392e-230
2.94246e-230
4.16947e-230
5.75305e-230
7.6818e-230
9.86767e-230
1.21124e-229
1.40848e-229
1.5327e-229
2.18859e-215
2.01691e-215
1.7385e-215
1.41941e-215
1.10706e-215
8.2995e-216
6.00951e-216
4.21908e-216
2.88131e-216
1.91932e-216
1.25002e-216
7.9764e-217
4.9959e-217
3.07648e-217
1.86539e-217
1.11518e-217
6.5812e-218
3.83827e-218
2.21452e-218
1.26514e-218
7.16292e-219
4.02234e-219
2.24195e-219
1.24117e-219
6.82925e-220
3.73695e-220
2.03476e-220
1.10305e-220
5.95645e-221
3.20559e-221
1.72012e-221
9.20746e-222
4.91851e-222
2.6231e-222
1.39716e-222
7.43483e-223
3.95381e-223
2.10174e-223
1.11692e-223
5.93378e-224
3.14995e-224
1.67479e-224
8.92016e-225
4.75994e-225
2.54508e-225
1.36371e-225
7.32359e-226
3.94248e-226
2.12782e-226
1.15163e-226
6.25196e-227
3.4055e-227
1.86194e-227
1.02226e-227
5.63868e-228
3.12653e-228
1.74378e-228
9.78979e-229
5.53685e-229
3.15769e-229
1.81808e-229
1.05868e-229
6.25501e-230
3.77588e-230
2.36631e-230
1.59394e-230
1.22654e-230
1.15023e-230
1.32561e-230
1.76454e-230
2.51724e-230
3.66264e-230
5.2964e-230
7.51144e-230
1.03664e-229
1.384e-229
1.77729e-229
2.1808e-229
2.53508e-229
2.75806e-229
3.91942e-215
3.61266e-215
3.1149e-215
2.54408e-215
1.98493e-215
1.48853e-215
1.07805e-215
7.56935e-216
5.16893e-216
3.44223e-216
2.24076e-216
1.42874e-216
8.93936e-217
5.49743e-217
3.32773e-217
1.9854e-217
1.16891e-217
6.79882e-218
3.91058e-218
2.22643e-218
1.25578e-218
7.02272e-219
3.89678e-219
2.14693e-219
1.17524e-219
6.3959e-220
3.46256e-220
1.86576e-220
1.00117e-220
5.35282e-221
2.85292e-221
1.51648e-221
8.04307e-222
4.25833e-222