/*--------------------------------*- C++ -*----------------------------------*\
  =========                 |
  \\      /  F ield         | OpenFOAM: The Open Source CFD Toolbox
   \\    /   O peration     | Website:  https://openfoam.org
    \\  /    A nd           | Version:  11
     \\/     M anipulation  |
\*---------------------------------------------------------------------------*/
FoamFile
{
    format      ascii;
    class       volScalarField;
    location    "100";
    object      C;
}
// * * * * * * * * * * * * * * * * * * * * * * * * * * * * * * * * * * * * * //

dimensions      [0 0 0 1 0 0 0];

internalField   nonuniform List<scalar> 
427520
(
1.00926e-310
2.0079e-310
3.73429e-310
8.01683e-311
5.50217e-311
-7.38085e-312
-2.60089e-312
3.89802e-311
4.14573e-311
-2.21502e-311
1.67311e-311
-4.97542e-311
-8.9897e-311
-9.34183e-311
-1.11877e-310
-1.09845e-310
-2.19679e-310
-7.33161e-311
-2.25762e-310
-1.02538e-311
2.81708e-312
6.1164e-311
2.8795e-311
-2.08706e-311
2.10832e-311
6.84626e-311
9.949e-311
1.01646e-310
7.63052e-311
6.12762e-311
6.63733e-311
1.95837e-311
5.18877e-311
3.43873e-311
8.59848e-311
1.66304e-311
-1.56669e-311
-3.9689e-311
-6.86234e-311
-1.85912e-311
4.17769e-311
-3.35735e-312
2.67586e-311
1.98763e-311
-1.09581e-311
-3.86041e-311
2.03986e-311
1.93849e-311
-6.8073e-311
-2.29485e-310
-9.88232e-311
-8.60009e-311
-3.12821e-311
1.29908e-310
3.63074e-311
-1.58789e-310
2.13307e-311
2.76805e-310
1.41315e-310
1.37435e-310
-1.33149e-310
6.56385e-311
-1.35227e-310
-7.37903e-311
-1.34909e-310
-2.3908e-310
-1.18197e-310
-1.10481e-310
-1.34779e-310
-1.29541e-310
-1.07385e-310
-7.5761e-311
-1.87523e-311
1.38686e-310
-5.85313e-311
-1.54781e-310
3.83201e-311
2.04024e-310
1.03582e-310
1.07607e-310
3.90234e-310
5.44712e-310
3.72752e-310
1.45161e-310
-3.24949e-311
-1.77377e-310
8.81139e-311
1.25697e-310
-7.06561e-311
-4.42279e-311
-2.18179e-311
-6.54632e-311
-2.18278e-310
-4.68186e-310
-3.29449e-310
-1.55786e-310
-1.37073e-310
7.83659e-311
3.46778e-311
9.72269e-311
-8.82513e-311
6.92134e-311
3.15056e-310
4.15574e-310
1.9669e-310
7.63238e-311
1.21316e-310
6.43608e-311
2.94597e-310
1.12716e-310
1.13601e-310
1.44292e-310
9.11255e-311
1.32823e-310
6.58494e-311
5.02019e-311
6.75248e-312
-2.12429e-311
-4.88825e-311
-8.82432e-312
1.59887e-311
-2.21068e-311
2.3246e-311
2.5914e-311
-5.48489e-311
-5.82642e-311
3.24256e-311
-9.86383e-311
-1.0075e-311
-6.26791e-311
-2.09348e-310
-3.42369e-310
-4.40178e-311
2.34555e-310
1.35787e-310
-1.47057e-310
7.78228e-311
7.25192e-310
6.4926e-310
4.53343e-310
-1.75115e-310
5.41236e-311
-1.66923e-310
-2.49134e-310
-4.30243e-310
-4.13753e-310
-1.86371e-310
-2.34435e-310
-2.96195e-310
-1.33131e-310
-4.20084e-311
-1.11651e-310
-1.79982e-310
5.78159e-312
8.67831e-311
-1.7902e-310
-2.31026e-310
4.62402e-311
-1.3221e-310
-2.90849e-310
-1.41867e-310
7.49103e-310
9.85732e-310
5.35293e-310
4.6304e-310
4.54572e-310
4.69218e-310
3.938e-310
2.03081e-310
1.43147e-310
-2.54043e-311
-4.47755e-311
-1.00559e-310
-3.00429e-310
-3.10251e-310
-6.20996e-310
-5.19886e-310
-2.09589e-311
3.38234e-310
2.75082e-310
1.06959e-310
1.28461e-310
1.42329e-310
3.90236e-310
3.48287e-310
4.26666e-310
1.73386e-310
3.0204e-310
2.23804e-310
1.99257e-310
4.48362e-310
5.15658e-310
4.37628e-310
2.26576e-310
9.49469e-311
8.37997e-311
-2.36022e-311
1.92685e-311
-2.99656e-311
-1.34147e-310
-1.28169e-310
-6.06486e-311
-3.5568e-311
-4.36454e-311
-8.39295e-311
-2.8652e-311
2.52905e-310
5.20573e-311
-4.63442e-311
-1.12666e-310
-8.28969e-311
-2.69706e-310
-3.02668e-310
1.78677e-310
6.9472e-311
-2.04428e-311
1.28657e-310
2.60686e-310
5.73947e-310
6.84271e-310
3.37622e-311
-7.69091e-311
-2.32454e-310
-4.24003e-310
-2.4382e-310
-2.45207e-310
-1.38142e-310
-7.57076e-311
-2.71239e-311
2.31931e-310
3.04018e-310
3.46424e-310
2.89958e-310
2.54608e-310
3.43145e-310
3.59257e-310
3.3889e-310
4.66783e-310
2.82226e-310
2.8067e-310
7.73546e-310
1.16548e-309
1.37497e-309
8.75037e-310
7.58896e-310
6.88698e-310
5.24988e-310
4.10522e-310
2.34561e-310
-1.70243e-311
1.58155e-310
1.04838e-310
-1.40774e-310
-1.8129e-310
-3.93065e-310
-2.18826e-310
-5.77164e-311
-1.44674e-310
2.95604e-310
5.62432e-310
9.93556e-311
-1.22226e-310
-1.90595e-310
-1.01149e-310
2.23646e-311
1.86644e-310
-1.43868e-310
1.29014e-310
3.26692e-310
1.00273e-310
2.29905e-310
2.07143e-310
3.62346e-310
2.92157e-310
3.59468e-310
1.30116e-310
8.08157e-311
3.01989e-311
-9.43475e-311
-1.14821e-310
-1.41227e-310
-6.63257e-311
-7.13971e-311
-6.98921e-311
-1.09731e-310
-2.59648e-310
-6.30798e-311
-1.08009e-310
-2.48023e-311
2.12687e-310
7.14207e-311
-1.34719e-310
-5.37071e-311
1.32053e-310
-1.16159e-310
-1.2109e-310
-2.41528e-311
1.69757e-310
3.09793e-310
5.20797e-311
-2.36945e-312
1.28183e-310
-2.03147e-310
-1.72802e-310
2.21391e-310
2.35779e-310
-3.52939e-311
-2.54513e-312
3.57489e-310
8.28268e-310
8.68481e-310
5.55573e-310
4.68855e-310
5.84327e-310
7.94237e-310
6.25101e-310
5.59692e-310
9.8192e-310
1.5776e-309
2.30219e-309
9.42245e-310
1.86641e-309
1.72408e-309
7.50593e-310
3.08855e-310
-2.79282e-311
-7.33372e-311
1.89709e-311
4.22638e-310
5.64083e-310
3.08562e-310
-5.98913e-311
-2.31682e-310
-3.65089e-310
-4.50263e-310
-3.74953e-310
-2.05898e-310
-2.48855e-310
3.56724e-310
6.21988e-310
3.21424e-310
3.98553e-311
-6.40872e-310
-8.45082e-310
-5.2071e-310
1.4304e-310
-8.61747e-311
2.70281e-310
9.67923e-311
-8.0061e-311
-1.41329e-311
1.12274e-310
1.98343e-310
3.26753e-310
4.0801e-310
1.6157e-310
6.91489e-311
6.0756e-311
-2.68162e-311
-9.97056e-311
3.93837e-311
1.02502e-310
-2.10811e-310
-2.33414e-310
-1.6812e-310
-2.52651e-310
3.18517e-311
-3.32201e-311
-3.18941e-311
1.18869e-311
-3.79103e-311
8.36324e-311
3.29307e-310
-7.3733e-311
1.87971e-310
7.61521e-311
8.90552e-311
3.93756e-310
6.76249e-310
4.83888e-310
-9.56826e-311
4.96409e-311
1.36929e-310
2.16904e-310
3.39966e-310
1.27149e-310
8.82352e-311
3.23347e-310
6.59534e-310
6.5407e-310
7.72548e-310
5.32214e-310
5.21789e-311
3.30941e-310
4.75924e-310
5.8441e-310
6.31137e-310
1.39808e-309
2.00954e-309
2.26333e-309
4.01646e-309
3.41408e-309
2.38611e-309
6.38005e-310
-3.60002e-310
-6.00413e-310
-5.46936e-310
2.95907e-310
6.76761e-310
6.52442e-310
8.48247e-310
4.16637e-310
-1.78457e-310
-2.24654e-310
-2.91153e-310
-4.13187e-310
-5.02295e-310
-2.49099e-310
1.79442e-310
2.19039e-310
-8.67722e-311
-2.58252e-310
-4.84773e-310
-6.87266e-310
-6.49783e-310
-3.40126e-310
-6.14561e-311
-2.17805e-310
-4.61985e-312
4.12899e-311
3.02335e-310
3.31546e-310
7.40405e-310
1.16615e-309
7.74784e-310
3.95877e-310
9.291e-311
2.07255e-310
-2.56777e-311
-3.87568e-312
-1.03233e-311
4.92129e-310
-1.02857e-310
-5.33619e-310
-6.24508e-310
-3.6558e-310
7.2512e-312
-1.33271e-310
-4.73324e-311
-4.54999e-311
-4.87257e-311
-7.00334e-311
2.13697e-310
2.04463e-310
1.64833e-310
-3.78888e-311
1.10191e-310
4.07547e-310
3.35979e-310
1.69078e-310
-2.52496e-310
-4.29594e-310
-6.58229e-311
3.50683e-311
3.10299e-310
2.45307e-310
2.04554e-310
3.87353e-310
4.88454e-310
4.9865e-310
7.53663e-310
6.24403e-310
6.27742e-310
6.36292e-310
1.3064e-309
1.23182e-309
1.29198e-309
1.16201e-309
1.21639e-309
1.72884e-309
3.90273e-309
3.3883e-309
2.35573e-309
8.1721e-310
9.30967e-311
-2.54074e-310
-2.91181e-310
2.78105e-310
7.43989e-310
9.18596e-310
6.58444e-310
4.27167e-310
1.35451e-310
-7.79931e-311
-3.73353e-312
-3.62253e-310
-4.74273e-310
-5.31204e-310
-4.15734e-310
-2.00535e-310
-4.52344e-310
-4.21558e-310
-7.56177e-310
-6.69343e-310
-4.38522e-310
-2.12373e-310
-3.33001e-311
-2.45436e-310
-1.76577e-310
-1.13381e-310
3.50292e-310
2.98271e-310
4.64253e-310
4.95553e-310
5.68934e-310
2.57272e-310
5.87501e-312
5.79822e-310
2.10214e-310
6.98919e-311
6.62061e-311
4.36302e-310
-2.42142e-310
-5.27454e-310
-8.8616e-310
-5.04201e-310
-3.47959e-310
-2.70168e-310
-2.2336e-310
-1.04365e-311
-2.452e-310
-1.3292e-310
4.07625e-310
3.41771e-310
6.68001e-311
-5.13633e-310
-2.52934e-310
1.25451e-310
4.59299e-310
3.99408e-310
9.87718e-311
-3.55576e-311
-1.71596e-311
1.18933e-310
1.53458e-310
2.78859e-310
7.50058e-311
2.76866e-310
4.60901e-310
5.08781e-310
5.38178e-310
6.15164e-310
3.61148e-310
1.03298e-309
1.36723e-309
1.85387e-309
1.48922e-309
7.95033e-310
9.27372e-310
1.61329e-309
3.07173e-309
2.50994e-309
1.53535e-309
6.02445e-310
5.13064e-311
-4.40687e-310
-4.99757e-310
2.59265e-310
4.76357e-310
4.60368e-310
2.81587e-310
-6.58142e-311
-6.96298e-311
-3.01271e-310
2.25537e-310
1.31138e-310
7.76462e-311
-2.9099e-311
-1.57524e-310
-3.54246e-310
-8.50909e-310
-6.8117e-310
-5.88852e-310
-5.8655e-310
-2.56209e-310
-1.857e-310
-1.59182e-310
-4.13067e-310
-2.4443e-310
-1.83159e-310
1.10733e-310
2.96438e-310
3.79806e-310
5.49487e-310
1.62473e-310
1.66102e-310
-3.99551e-311
2.4444e-310
5.18864e-310
2.50537e-310
1.54903e-310
1.04084e-310
-4.85904e-310
-7.20863e-310
-7.63789e-310
-3.50624e-310
-1.49308e-310
-4.51794e-310
-3.36574e-310
4.21987e-311
-1.69593e-310
1.80971e-310
4.16294e-310
5.34695e-310
-2.23794e-311
-5.5528e-310
-3.42573e-310
-2.01058e-310
-5.00651e-311
3.74836e-310
4.63275e-310
2.18719e-310
1.86401e-310
2.8539e-310
2.38882e-310
1.61639e-310
-1.87868e-310
6.35482e-311
2.28323e-310
2.34898e-310
1.43792e-310
-4.13479e-311
2.84093e-310
8.76242e-310
1.36066e-309
1.35787e-309
1.70482e-309
1.28409e-309
1.52344e-309
1.91334e-309
3.948e-310
1.04667e-309
4.96705e-310
7.80485e-310
7.4501e-310
8.68179e-310
-2.29333e-310
-4.30726e-310
-3.19537e-310
-1.88807e-310
-2.29043e-310
-4.09416e-310
-4.76259e-310
-4.04447e-310
-1.79673e-310
-2.15136e-310
4.31383e-310
2.2972e-310
1.54348e-310
-3.50501e-310
-9.7161e-310
-1.16379e-309
-1.12576e-309
-7.60225e-310
-4.79914e-310
-5.58982e-310
-4.02224e-310
-3.31949e-310
-1.82429e-310
6.01451e-311
3.22381e-310
1.39024e-310
5.13218e-310
4.1876e-310
1.29248e-310
1.40098e-312
2.16583e-311
3.47607e-311
-1.30116e-310
6.0072e-311
-1.88635e-310
-4.11593e-310
-6.23055e-310
-7.97592e-310
-7.83116e-310
-5.37929e-310
1.51294e-310
-1.78651e-310
-5.96899e-310
-3.08942e-310
-3.64773e-310
-3.65297e-311
3.89298e-311
-3.17901e-310
-2.94512e-310
-3.09141e-310
-6.70907e-311
-7.44722e-311
2.14106e-310
2.33256e-310
3.58547e-311
1.87811e-310
2.54311e-311
5.18238e-310
-2.1241e-310
-6.05461e-310
8.45162e-311
4.02965e-310
2.78244e-310
5.50335e-310
2.21905e-310
1.9039e-310
5.55486e-310
5.20346e-310
5.49523e-310
4.62207e-310
7.46051e-310
1.49464e-310
6.91086e-311
5.57604e-310
7.56507e-310
2.27156e-310
1.63712e-310
-1.70095e-310
7.88536e-311
-1.64856e-310
-5.72061e-310
-9.16637e-310
-8.10029e-310
-5.49583e-310
-3.62406e-310
-4.34216e-310
-5.05851e-310
-2.8182e-310
-2.84816e-310
2.03932e-311
5.6259e-310
5.58561e-310
-3.08901e-310
-6.04438e-310
-1.01846e-309
-9.01326e-310
-1.07818e-309
-1.17835e-309
-1.19206e-309
-7.19411e-310
-9.70805e-310
-6.69865e-310
-6.58363e-310
-4.93924e-310
1.47037e-310
-1.26507e-310
2.80267e-310
-1.92345e-310
5.3538e-311
2.06772e-310
1.71672e-311
-1.6495e-310
-1.62734e-310
1.39656e-310
-4.54927e-311
-2.10506e-310
-1.97577e-310
-3.4961e-310
-4.07081e-310
-5.15495e-310
-5.62943e-311
-6.7244e-310
-5.13719e-310
-7.47209e-310
-4.28119e-310
-1.01478e-310
-2.4083e-310
-4.27938e-310
-5.60405e-310
-3.4067e-310
-9.44735e-311
-1.67037e-311
3.50377e-311
2.65305e-310
2.72689e-312
8.42654e-311
-1.51007e-310
4.46629e-310
-1.72956e-310
-3.36631e-310
-7.10037e-311
5.14813e-310
5.70875e-310
7.26962e-310
3.34207e-310
3.97147e-310
1.14391e-310
4.26127e-310
5.74904e-310
6.57533e-310
8.28933e-310
5.76669e-311
4.02316e-310
1.51311e-309
1.18049e-309
7.74184e-310
1.3433e-309
8.92684e-310
-2.72884e-310
-5.88314e-310
-4.31311e-310
-5.79802e-310
-8.0128e-310
-5.31952e-310
-2.63461e-310
-5.34236e-310
-7.99628e-310
-8.17763e-310
-1.03091e-310
-3.5436e-310
6.97043e-311
-2.21161e-310
-5.11111e-310
-4.49942e-310
-1.01339e-309
-7.17377e-310
-6.97423e-310
-1.51528e-309
-1.23086e-309
-8.22757e-310
-9.45367e-310
-5.72506e-310
-7.37362e-310
-5.42078e-310
-7.08743e-311
-2.48466e-310
9.75512e-311
3.88735e-311
3.76742e-310
1.70384e-310
3.47836e-310
-3.91158e-310
-3.1266e-310
-1.69513e-310
2.74432e-310
-9.30254e-311
1.17116e-310
-1.84781e-310
-4.10689e-311
-2.39159e-310
-1.18204e-310
-5.43978e-310
-1.92919e-310
1.81063e-311
1.43947e-310
-8.75493e-311
-7.86005e-311
-3.15225e-310
1.32223e-310
-5.15178e-311
-1.82781e-310
1.08407e-311
-2.4494e-310
2.77957e-310
4.1314e-310
3.27099e-310
2.17618e-310
2.91668e-310
-2.00317e-310
1.31065e-310
5.42276e-310
1.3875e-309
1.05687e-309
8.25878e-310
2.03796e-310
6.70729e-310
7.30144e-310
1.04776e-309
1.1347e-309
1.00859e-309
7.47811e-310
3.45835e-310
-1.75525e-311
-1.83057e-310
1.62065e-309
1.74913e-309
1.36562e-309
1.12581e-309
1.67127e-310
-3.79667e-311
-4.21441e-310
-8.29443e-310
-1.25809e-309
-8.34642e-310
-1.1195e-309
-1.04948e-309
-1.23158e-309
-9.45832e-310
-2.15868e-310
-8.43116e-311
-1.64458e-311
-3.33322e-310
-4.18818e-310
-4.64049e-310
-7.11763e-310
-8.0793e-310
-1.16889e-309
-1.39981e-309
-1.22339e-309
-1.02129e-309
-1.14349e-309
-1.13033e-309
-1.38778e-309
-8.55929e-310
-5.2001e-310
-5.64236e-310
-2.52032e-310
1.24201e-310
1.47725e-310
3.13279e-310
3.84049e-310
-5.00768e-310
-2.45677e-310
-2.15896e-311
3.05333e-310
2.0694e-310
2.58779e-310
-2.56157e-310
-3.5323e-310
-4.28544e-310
-7.3676e-310
-5.95732e-310
-3.27635e-310
2.57826e-310
2.35946e-310
-1.11369e-310
-2.97354e-310
-2.9705e-310
-1.51224e-310
-1.69169e-311
-5.46468e-311
3.14952e-310
3.46249e-310
4.5739e-310
5.48831e-310
2.43836e-310
3.82227e-310
6.75024e-310
2.63804e-311
4.10306e-311
7.17249e-310
1.46219e-309
1.41381e-309
1.57004e-309
8.66243e-310
9.05036e-310
1.23765e-309
8.65782e-310
9.69792e-310
8.7087e-310
3.12378e-310
4.1526e-310
9.25389e-310
1.37513e-309
-5.06097e-310
-2.79996e-310
5.38881e-310
9.49907e-310
2.86192e-310
-2.57137e-310
-9.83951e-310
-6.58259e-310
-8.41749e-310
-1.20821e-309
-1.29176e-309
-1.6399e-309
-1.34188e-309
-8.09563e-310
-3.20332e-310
9.07101e-311
-1.57089e-310
-2.0882e-311
-2.50678e-310
-3.46907e-310
-8.72939e-310
-1.24994e-309
-1.4972e-309
-1.41742e-309
-1.63622e-309
-1.41321e-309
-1.36009e-309
-1.05048e-309
-1.17269e-309
-8.67492e-310
-6.78546e-310
-2.29955e-310
-1.67258e-310
-1.65638e-310
3.82296e-310
4.01481e-310
3.60012e-310
-1.29236e-310
-2.08113e-310
-3.12986e-310
-1.79646e-310
-3.96387e-311
2.38842e-312
-4.07535e-310
-5.35131e-310
-4.55001e-310
-2.33989e-310
-3.16022e-310
5.30743e-311
1.58417e-310
4.6972e-310
5.6841e-310
-1.6609e-310
-2.74719e-310
-2.96881e-310
1.31723e-310
2.12523e-310
4.68925e-310
5.43881e-310
8.48367e-310
3.6327e-310
6.43106e-310
8.31073e-311
1.39656e-311
-1.03666e-310
-1.31664e-310
5.57931e-310
1.28228e-309
1.35158e-309
1.7113e-309
1.29256e-309
9.61489e-310
1.11843e-309
8.66149e-310
-7.77049e-311
-6.5202e-310
-4.91404e-311
2.34442e-310
8.05888e-310
1.14209e-309
3.97588e-311
8.506e-310
2.07048e-310
1.58424e-310
-5.81968e-310
-1.20735e-309
-1.01734e-309
-9.34881e-310
-8.09389e-310
-7.11096e-310
-1.01434e-309
-1.30321e-309
-1.16893e-309
-5.14849e-310
-1.91646e-310
1.0938e-311
-3.97696e-310
-3.25703e-310
-2.05995e-310
-2.75766e-310
-6.68859e-310
-9.13519e-310
-1.38024e-309
-1.43536e-309
-1.94675e-309
-2.18873e-309
-2.15411e-309
-1.29254e-309
-1.06507e-309
-1.06495e-309
-5.577e-310
-1.06104e-310
1.09319e-310
5.15538e-310
4.47823e-310
2.80901e-310
6.94917e-310
3.29219e-310
-3.0942e-311
-5.47246e-310
-2.92367e-310
-5.88541e-312
-1.64985e-310
-4.16725e-310
-5.36708e-310
-6.72095e-310
-3.54328e-310
-1.99012e-310
4.45687e-310
6.94599e-310
1.12085e-309
9.55416e-310
2.21475e-310
-2.63974e-310
-2.03626e-310
5.702e-311
6.21189e-310
5.9053e-310
1.02704e-309
1.01884e-309
4.70344e-310
5.79824e-310
4.22721e-310
-1.63903e-310
-1.95673e-310
-3.32593e-310
1.33687e-311
5.65504e-310
1.35465e-309
1.67697e-309
1.84751e-309
1.90567e-309
1.54363e-309
7.43777e-310
-4.29571e-310
-1.77832e-309
-1.26115e-309
-5.64573e-310
1.48881e-311
-1.48476e-310
-6.93838e-310
2.08161e-311
-1.01511e-309
-1.50461e-309
-8.05626e-310
-7.51033e-310
-8.02011e-310
-1.02296e-309
-1.14069e-309
-9.32469e-310
-8.06744e-310
-1.32567e-309
-8.55844e-310
-3.54688e-310
-3.89896e-310
-7.4585e-310
-6.36569e-310
-4.49752e-310
-2.29094e-310
-9.31283e-311
-8.62997e-310
-1.08715e-309
-1.48704e-309
-1.9974e-309
-2.08173e-309
-2.23424e-309
-2.56455e-309
-2.04074e-309
-1.32158e-309
-1.07672e-309
-4.05549e-310
-3.50245e-310
-4.68765e-310
-7.57573e-311
3.30883e-310
3.12903e-310
7.47785e-310
5.59252e-310
2.8607e-310
-3.49626e-310
-4.6866e-310
-4.88132e-310
-5.88985e-310
-3.99416e-310
-3.46224e-310
-1.74524e-310
3.4513e-310
4.7962e-312
5.57071e-310
3.37155e-310
6.05085e-310
3.18449e-310
5.44778e-310
-7.1019e-312
-3.96836e-310
-7.60862e-310
1.74403e-311
1.6989e-310
3.64728e-310
8.58556e-310
1.02712e-309
1.1525e-309
1.03325e-309
5.18915e-310
4.04557e-310
-8.19698e-310
-3.5545e-310
8.19268e-312
5.54056e-310
1.14194e-309
1.31762e-309
1.15153e-309
4.49386e-310
-2.7778e-310
-1.33232e-309
-1.76962e-309
-1.72766e-309
-2.06078e-309
-1.62725e-309
-1.2011e-309
-1.8625e-309
-2.3087e-309
-2.80156e-309
-2.5073e-309
-1.38646e-309
-5.59036e-310
-5.08316e-310
-1.22877e-310
-1.17015e-309
-9.921e-310
-9.23353e-310
-8.38056e-310
-7.65772e-310
-7.79369e-310
-5.05945e-310
-8.68126e-310
-7.26805e-310
-5.33461e-310
8.99414e-311
5.44767e-310
1.52564e-310
-2.44079e-310
-1.11542e-309
-1.99753e-309
-2.42024e-309
-2.92505e-309
-2.642e-309
-2.37538e-309
-1.39609e-309
-9.7876e-310
-4.75661e-310
-3.55242e-310
-5.62139e-310
-2.13538e-310
2.77495e-310
3.13227e-310
4.5767e-310
1.27665e-310
-2.32946e-310
-2.85211e-310
-4.7567e-310
-2.95135e-310
-2.77843e-310
1.7157e-310
2.55119e-310
-1.28317e-310
-1.13532e-310
-1.15202e-310
5.48579e-310
3.89242e-310
4.51472e-310
-4.65725e-311
1.04083e-310
-4.73401e-310
-1.15113e-310
-3.44121e-311
-6.93017e-312
-1.52282e-311
3.53181e-310
9.49593e-310
1.53425e-309
1.65013e-309
1.42976e-309
7.00965e-310
3.01911e-311
-7.35326e-310
-7.91409e-310
-5.39062e-310
-9.02187e-311
4.34527e-310
4.47638e-310
3.42346e-310
6.01782e-310
-1.25781e-310
-1.28658e-309
-1.67916e-309
-1.85345e-309
-1.22067e-309
-1.12679e-309
-1.40419e-309
-2.06833e-309
-3.52497e-309
-3.63327e-309
-3.69743e-309
-2.17795e-309
-7.89732e-310
-2.72275e-310
-8.19501e-310
-1.05231e-309
-4.39758e-310
-4.18565e-310
-1.13324e-309
-1.20941e-309
-1.00287e-309
-8.44882e-310
-1.24898e-309
-1.01148e-309
-8.64754e-310
-1.43678e-310
-9.90878e-311
-2.59585e-310
-6.59122e-310
-1.12291e-309
-1.98463e-309
-2.32779e-309
-2.51705e-309
-2.38725e-309
-2.36689e-309
-1.72201e-309
-1.50409e-309
-6.94599e-310
-5.8782e-310
-6.83177e-310
-6.76148e-310
1.05846e-310
5.58377e-310
7.06488e-310
2.11662e-310
2.09764e-310
9.01706e-311
-3.22942e-310
-1.18796e-310
-1.40638e-310
1.2725e-310
1.22241e-310
-1.53608e-310
9.62237e-311
3.1296e-310
1.06196e-309
5.43444e-310
4.45854e-310
1.31636e-310
1.40386e-310
-4.46674e-310
-9.99207e-311
4.59982e-311
-1.13282e-311
-2.61803e-310
6.12496e-310
9.32583e-310
1.33119e-309
1.6311e-309
1.39342e-309
8.92086e-310
-1.28865e-310
-4.72067e-310
-1.12931e-309
-9.51523e-310
-6.33079e-310
5.4707e-310
4.04649e-310
4.88567e-310
4.6286e-310
-1.3752e-310
-8.9959e-310
-1.51628e-309
-1.50387e-309
-1.19997e-309
-1.71954e-309
-2.03011e-309
-2.86539e-309
-2.36668e-309
-2.27807e-309
-1.89157e-309
-1.35309e-309
-1.59685e-309
-1.52896e-309
-1.16884e-309
-1.67752e-309
-9.41787e-310
-6.12942e-310
-1.35617e-309
-1.41696e-309
-1.29736e-309
-9.9346e-310
-1.53069e-309
-9.1723e-310
-7.90454e-310
-4.12055e-310
-3.10745e-310
-6.03708e-310
-1.16705e-309
-1.66807e-309
-2.59541e-309
-2.59651e-309
-2.87689e-309
-2.71628e-309
-2.55976e-309
-1.85691e-309
-1.21534e-309
-6.98319e-310
-8.31056e-310
-7.49374e-310
-5.77393e-310
2.67726e-310
9.09232e-310
1.1072e-309
2.86484e-310
2.97066e-310
9.60059e-311
-1.58555e-310
-1.12547e-310
-4.70844e-310
1.15077e-310
-1.16862e-310
4.62516e-311
1.22005e-311
3.41958e-310
8.0551e-310
6.09006e-311
-6.05171e-311
-1.25367e-310
2.03413e-310
-2.21056e-310
-2.40505e-310
-7.90775e-311
1.85547e-310
-2.54298e-312
4.83418e-310
5.12403e-310
1.44586e-309
2.23307e-309
1.74021e-309
9.22436e-310
-3.74613e-310
-4.24376e-310
-1.223e-309
-1.10713e-309
-4.2321e-310
8.22721e-310
1.10659e-309
5.23647e-310
9.53749e-310
1.00374e-309
4.43661e-310
-3.75863e-310
-6.87589e-310
-4.10842e-310
-8.2038e-310
-3.07429e-311
-4.16872e-309
-3.77849e-309
-3.48323e-309
-2.5681e-309
-1.77779e-309
-1.54609e-309
-1.56682e-309
-2.01623e-309
-1.93658e-309
-1.5815e-309
-1.08244e-309
-1.47105e-309
-1.39287e-309
-1.18451e-309
-1.15351e-309
-1.0312e-309
-8.88513e-310
-1.0462e-309
-7.29995e-310
-7.4144e-310
-5.05423e-310
-9.49243e-310
-1.61353e-309
-2.70528e-309
-3.15054e-309
-3.17727e-309
-2.7661e-309
-2.62632e-309
-1.83542e-309
-1.10136e-309
-6.38411e-310
-4.7434e-310
-3.42445e-310
-4.16561e-310
1.08462e-310
1.11982e-309
7.08046e-310
3.48332e-310
1.50265e-310
3.80204e-311
1.9714e-310
-1.65539e-310
-1.80813e-310
1.04246e-310
-3.08149e-310
-9.23644e-311
-4.2474e-310
-5.97955e-312
2.22187e-310
2.69839e-310
2.67501e-310
4.14807e-310
2.86242e-310
1.88528e-310
-2.71365e-311
-2.51312e-311
8.28012e-311
3.83785e-311
4.75297e-310
4.56753e-310
1.43475e-309
2.11012e-309
1.68992e-309
8.43166e-310
8.57264e-312
-2.56749e-311
-9.3088e-310
-1.48031e-309
-5.81378e-310
9.52864e-310
6.11497e-310
6.96936e-310
1.59753e-309
1.09531e-309
1.34556e-309
1.44481e-309
1.25279e-309
2.51136e-309
3.44866e-309
3.6275e-309
-6.11861e-309
-5.93822e-309
-4.67607e-309
-3.50228e-309
-3.06132e-309
-2.63557e-309
-2.04154e-309
-2.30622e-309
-2.04872e-309
-2.14958e-309
-2.23513e-309
-2.20252e-309
-1.04294e-309
-1.17279e-309
-1.3533e-309
-1.32003e-309
-8.83007e-310
-4.73576e-310
-4.92699e-310
-5.14523e-310
-5.34092e-310
-7.48432e-310
-1.65694e-309
-2.41287e-309
-2.98465e-309
-3.40103e-309
-2.67451e-309
-2.23418e-309
-1.46095e-309
-8.24187e-310
-6.01957e-310
-4.7787e-310
-4.59674e-310
-5.53103e-310
2.21478e-310
5.07327e-310
5.17852e-310
7.36259e-310
2.10146e-310
-9.59874e-311
1.09509e-310
-4.23315e-310
-1.463e-310
-1.30267e-310
-3.4348e-310
-1.9528e-310
-5.20654e-311
3.44192e-311
7.78608e-311
2.15107e-310
-1.98005e-310
-2.5105e-310
-3.50186e-310
-3.23916e-310
-9.8762e-311
-1.2902e-310
4.20809e-310
4.29105e-310
7.58813e-310
1.1277e-309
1.83548e-309
2.15835e-309
1.69957e-309
1.09775e-309
-8.03511e-311
2.25828e-311
-2.12774e-310
-9.71687e-310
-6.27318e-310
9.91443e-310
1.43922e-309
1.06586e-309
1.84925e-309
1.73399e-309
2.31786e-309
2.21415e-309
2.5743e-309
3.48267e-309
4.45575e-309
4.52862e-309
-6.06111e-309
-5.2023e-309
-5.21871e-309
-3.26608e-309
-2.54986e-309
-2.20141e-309
-2.36785e-309
-2.84934e-309
-2.09678e-309
-2.06604e-309
-1.88732e-309
-1.91554e-309
-1.70749e-309
-1.73653e-309
-1.66931e-309
-1.27563e-309
-9.43928e-310
-3.58035e-311
-2.22376e-310
1.16909e-310
-2.60747e-311
-2.29464e-310
-1.06194e-309
-1.88588e-309
-2.89602e-309
-3.5008e-309
-3.23159e-309
-2.51929e-309
-1.81721e-309
-1.09339e-309
-9.13375e-310
-7.00834e-310
-1.05883e-309
-1.01017e-309
-3.81525e-310
6.18304e-311
4.07364e-310
8.591e-310
7.38146e-310
2.53463e-310
1.37868e-310
-3.32743e-310
-4.44771e-310
-5.47177e-310
-1.64016e-310
-6.20604e-310
-9.62324e-311
-3.57993e-310
-3.92366e-310
-6.30312e-311
-5.13848e-311
3.17879e-311
-1.43562e-310
-1.9349e-310
-2.20562e-310
-5.14179e-310
1.03191e-310
5.58049e-310
1.17709e-309
1.89121e-309
2.03191e-309
2.32973e-309
1.71557e-309
1.5045e-309
4.58553e-310
1.25935e-310
1.58596e-310
-2.96386e-310
3.90395e-310
8.52985e-310
1.27077e-309
1.08578e-309
1.66174e-309
2.00874e-309
2.45664e-309
2.91254e-309
2.76253e-309
3.66709e-309
4.1863e-309
5.12336e-309
-4.60527e-309
-3.6901e-309
-2.92149e-309
-1.6346e-309
-4.36104e-310
-1.41439e-309
-1.8624e-309
-2.30646e-309
-2.31211e-309
-2.03147e-309
-1.59719e-309
-2.35657e-309
-2.02632e-309
-1.73946e-309
-1.79589e-309
-1.33744e-309
-6.37691e-310
8.35687e-311
3.73761e-310
2.33002e-310
2.97087e-310
2.22428e-310
-8.43674e-310
-1.62087e-309
-2.58293e-309
-2.95155e-309
-2.88601e-309
-2.36665e-309
-1.81507e-309
-1.32572e-309
-1.18324e-309
-7.8928e-310
-1.38809e-309
-8.38916e-310
-4.42126e-310
-1.06881e-311
2.47338e-310
6.57363e-310
7.80191e-310
3.42254e-310
3.20659e-310
-1.85941e-310
-4.75487e-310
-5.90309e-310
5.06874e-311
-6.67812e-311
2.07916e-310
3.37066e-310
3.63723e-310
3.22264e-310
1.61052e-310
-1.2042e-310
1.51691e-310
-3.02397e-310
-6.20636e-310
-6.57321e-310
-2.27108e-310
4.91277e-310
8.29453e-310
1.3763e-309
2.08144e-309
2.02406e-309
1.86833e-309
1.46371e-309
1.12891e-309
4.44608e-310
4.62207e-310
1.55064e-310
7.95965e-310
1.34466e-309
1.72262e-309
1.393e-309
1.60737e-309
1.56914e-309
1.12644e-309
1.66777e-309
3.31467e-309
4.68188e-309
5.65239e-309
6.23243e-309
-2.76397e-309
-2.29298e-309
-2.39149e-309
-1.5848e-309
-1.33371e-309
-7.09664e-310
-1.40835e-309
-1.3282e-309
-1.77121e-309
-1.43814e-309
-1.49072e-309
-1.51564e-309
-1.92276e-309
-1.41542e-309
-1.77466e-309
-1.25871e-309
-8.07575e-310
7.57714e-311
4.68558e-310
6.26379e-310
4.19203e-310
2.06392e-310
-4.72135e-310
-1.41201e-309
-2.14595e-309
-2.62284e-309
-2.57426e-309
-2.28487e-309
-2.17512e-309
-1.51275e-309
-1.2197e-309
-8.37428e-310
-1.45778e-309
-1.16139e-309
-7.32562e-310
-1.65215e-310
8.1134e-311
4.59609e-310
6.8126e-310
3.97791e-310
5.28063e-310
1.35349e-310
-4.55325e-310
-7.92765e-310
-8.98023e-311
6.72758e-311
6.18663e-310
4.02095e-310
7.74069e-310
6.88091e-310
7.16961e-310
-3.56208e-310
1.20595e-310
-1.6809e-310
-7.85328e-310
-7.18322e-310
-4.30236e-310
1.7497e-311
2.06919e-310
7.6027e-310
1.59498e-309
1.61352e-309
1.5985e-309
1.45667e-309
1.4731e-309
7.39457e-310
1.17694e-309
6.98877e-310
1.04259e-309
1.81403e-309
2.04674e-309
1.98034e-309
1.10728e-309
4.10816e-310
1.21894e-310
1.35872e-309
2.77667e-309
3.88893e-309
5.0727e-309
6.38178e-309
6.08947e-310
5.46148e-310
2.84591e-310
2.36003e-310
-2.81275e-310
-1.42618e-309
-1.93461e-309
-2.08335e-309
-2.41155e-309
-1.22987e-309
-1.82243e-309
-1.4844e-309
-1.96883e-309
-1.75699e-309
-1.75265e-309
-1.69001e-309
-1.03711e-309
-1.23355e-311
5.75755e-310
1.04177e-309
8.6832e-310
6.22143e-310
9.05933e-311
-1.09434e-309
-1.71219e-309
-2.15324e-309
-2.33003e-309
-2.32454e-309
-2.38559e-309
-1.59747e-309
-1.21498e-309
-1.28149e-309
-1.54456e-309
-1.1663e-309
-9.78557e-310
-1.95599e-310
9.45566e-311
8.5978e-310
9.52389e-310
6.70445e-310
6.2565e-310
6.64755e-311
2.60592e-310
-3.51417e-310
5.29126e-310
5.53953e-310
5.53976e-310
6.4182e-310
6.69705e-310
1.05743e-309
5.63068e-310
-1.17926e-310
-6.82408e-311
-3.5887e-310
-5.97121e-310
-6.49692e-310
-5.79702e-310
-1.73752e-310
5.26572e-310
1.19328e-309
1.8843e-309
2.10744e-309
1.87389e-309
1.88123e-309
1.65533e-309
1.09376e-309
2.00729e-309
1.65137e-309
1.35341e-309
1.59005e-309
1.71014e-309
1.60623e-309
1.58242e-309
1.03259e-309
1.39851e-309
2.01395e-309
2.55222e-309
3.01622e-309
4.33885e-309
4.34185e-309
1.57434e-309
1.74036e-309
8.34406e-310
1.44982e-309
4.06135e-310
-6.04383e-310
-1.68258e-309
-2.33221e-309
-2.27837e-309
-1.98026e-309
-2.85079e-309
-2.87274e-309
-2.70926e-309
-2.60074e-309
-2.14839e-309
-1.60442e-309
-6.3618e-310
5.20549e-310
1.02495e-309
1.11903e-309
7.37916e-310
7.80987e-310
3.69235e-310
-4.72732e-310
-1.41829e-309
-1.64982e-309
-2.13971e-309
-2.21546e-309
-2.18868e-309
-1.81253e-309
-1.46084e-309
-1.10492e-309
-1.21445e-309
-9.80653e-310
-2.94249e-310
-4.49107e-310
4.38803e-311
6.46413e-310
9.90873e-310
9.47203e-310
8.46029e-310
5.55827e-311
3.23452e-310
1.02402e-310
5.15615e-310
8.84367e-310
5.13203e-310
6.05048e-310
6.80606e-310
1.009e-309
7.0919e-310
-3.80442e-311
-5.88203e-310
-9.55646e-310
-9.98373e-310
-9.66632e-310
-5.09226e-310
2.44745e-310
8.33913e-310
1.51414e-309
1.53655e-309
1.86228e-309
1.62753e-309
1.56768e-309
1.21618e-309
1.13316e-309
1.43269e-309
1.48371e-309
1.08891e-309
1.09863e-309
7.2711e-310
9.7483e-310
8.62892e-310
1.31304e-309
1.35374e-309
1.43082e-309
2.04014e-309
3.04978e-309
3.14972e-309
3.99465e-309
2.54272e-309
2.33373e-309
1.08689e-309
1.24063e-309
8.45493e-310
1.52732e-310
-8.62771e-310
-1.71588e-309
-2.1311e-309
-2.83591e-309
-3.08242e-309
-2.95831e-309
-3.06482e-309
-2.72127e-309
-2.4481e-309
-1.46124e-309
-6.38665e-310
3.90236e-310
1.08633e-309
9.4993e-310
8.53157e-310
9.64159e-310
5.25423e-310
-1.22583e-310
-8.01546e-310
-1.31122e-309
-2.04224e-309
-2.10766e-309
-1.74121e-309
-1.61504e-309
-1.77039e-309
-1.2751e-309
-1.09505e-309
-1.13932e-309
-7.24069e-310
-5.89084e-310
-2.51377e-310
5.9437e-310
7.31556e-310
9.67227e-310
8.42629e-310
5.68906e-310
1.23977e-310
4.22543e-310
5.76e-310
7.77614e-310
5.28902e-310
7.5966e-310
5.99352e-310
2.75765e-310
2.44807e-310
-3.62119e-310
-1.3068e-309
-1.35179e-309
-1.26269e-309
-1.23459e-309
-8.05468e-310
-2.15588e-310
9.67173e-310
1.54079e-309
1.56345e-309
1.46305e-309
1.78479e-309
9.24397e-310
1.39585e-309
1.31533e-309
2.04548e-309
1.56717e-309
1.48106e-309
4.42875e-310
2.78042e-310
4.70399e-310
4.46545e-310
1.14663e-309
1.18756e-309
1.28166e-309
2.43599e-309
2.88855e-309
2.41439e-309
2.18601e-309
2.57698e-309
1.72793e-309
1.33834e-309
5.6558e-310
6.3951e-310
5.78601e-310
-1.01703e-310
-2.81685e-310
-1.75245e-309
-2.7003e-309
-3.13434e-309
-2.91886e-309
-2.8656e-309
-2.65101e-309
-2.54418e-309
-1.37184e-309
-1.03819e-309
3.71826e-310
1.07269e-309
1.31934e-309
1.46035e-309
1.50666e-309
7.88775e-310
-4.23023e-311
-9.08e-310
-1.32451e-309
-1.78646e-309
-2.05338e-309
-1.67217e-309
-1.97083e-309
-1.92061e-309
-1.5321e-309
-1.26927e-309
-1.09871e-309
-8.88533e-310
-5.18721e-310
-4.31603e-310
3.20155e-310
6.17623e-310
1.08474e-309
7.70397e-310
4.04333e-310
8.79996e-311
6.30118e-310
5.61953e-310
6.24217e-310
6.89479e-310
7.31255e-310
4.61105e-310
6.13278e-310
-2.95548e-311
-6.87359e-310
-1.4501e-309
-1.48758e-309
-1.32728e-309
-1.38189e-309
-8.73704e-310
-2.85274e-311
8.53698e-310
1.31695e-309
1.48866e-309
1.22699e-309
1.33295e-309
1.13427e-309
1.35575e-309
1.22016e-309
1.48474e-309
1.34331e-309
1.04129e-309
5.87647e-310
-5.74298e-310
-2.68565e-310
-6.63814e-310
-3.74906e-310
-3.68967e-310
-6.44599e-311
4.00772e-310
1.67103e-309
1.64647e-309
1.47289e-309
3.19533e-310
1.6022e-310
2.98118e-310
1.39873e-310
6.88238e-310
1.08776e-309
3.57268e-310
-4.94965e-310
-1.28521e-309
-1.63133e-309
-2.22278e-309
-1.95371e-309
-2.12043e-309
-1.80361e-309
-2.2882e-309
-1.91845e-309
-1.31922e-309
3.42459e-311
6.69295e-310
5.3813e-310
1.06775e-309
1.13001e-309
5.08614e-310
-1.79572e-310
-6.7587e-310
-1.17473e-309
-1.49445e-309